# nutMean  POINT_DATA 63140
# x  y  z  nutMean
0 0.1 0 0.00522562
0 0.1 -0.0179898 0.0052287
0 0.1 0.0179898 0.0052226
0.0363518 0.1 -0.0179898 0.0117928
0.0363518 0.1 0.0179898 0.011874
0 0.1 -0.0570102 0.00524773
0 0.1 0.0570102 0.00522938
0.0363518 0.1 0.0570102 0.0118808
0.0363518 0.1 -0.0570102 0.0118118
0 0.1 0.075 0.00523841
0 0.1 -0.075 0.00526185
0.075776 0.1 -0.0375 0.0187267
0.075776 0.1 0.0375 0.0188962
0 0.1 0.0929898 0.0052476
0 0.1 -0.0929898 0.00527645
0.0363518 0.1 0.0929898 0.0114417
0.0363518 0.1 -0.0929898 0.0112932
0 0.1 0.13201 0.0052716
0 0.1 -0.13201 0.00530822
0.075776 0.1 0.1125 0.0179777
0.075776 0.1 -0.1125 0.0176312
0.0363518 0.1 0.13201 0.0114657
0.0363518 0.1 -0.13201 0.0113249
0 0.1 0.15 0.00528412
0 0.1 -0.15 0.00532279
0.150379 0.1 -8.67362e-19 0.0181558
0.150379 0.1 0.0710023 0.0176668
0 0.1 0.16799 0.00529753
0 0.1 -0.16799 0.00533872
0.150379 0.1 -0.075 0.0169731
0.0363518 0.1 0.16799 0.0106148
0.0363518 0.1 -0.16799 0.0104897
0.075776 0.1 0.1875 0.016231
0.075776 0.1 -0.1875 0.0159355
0 0.1 0.20701 0.00532273
0 0.1 -0.20701 0.00536374
0.0363518 0.1 0.20701 0.01064
0.0363518 0.1 -0.20701 0.0105148
0.150379 0.1 -0.15 0.0149782
0.150379 0.1 0.15 0.0155586
0.219992 0.1 -0.0375 0.0174422
0.219992 0.1 0.0375 0.0176121
0 0.1 0.225 0.00533334
0 0.1 -0.225 0.00537262
0 0.1 0.24299 0.00534564
0 0.1 -0.24299 0.00538319
0.0363518 0.1 0.24299 0.00988907
0.0363518 0.1 -0.24299 0.00992045
0.219992 0.1 0.1125 0.0155076
0.219993 0.1 -0.1125 0.0141756
0.150379 0.1 -0.225 0.0137637
0.150379 0.1 0.225 0.0138997
0.075776 0.1 -0.2625 0.0147647
0.075776 0.1 0.2625 0.0147294
0 0.1 -0.28201 0.00539118
0 0.1 0.28201 0.00535694
0.0363518 0.1 -0.28201 0.00992844
0.0363518 0.1 0.28201 0.00990037
0.287374 0.1 0 0.0136574
0.219992 0.1 -0.1875 0.012295
0.219993 0.1 0.1875 0.0126209
0.287374 0.1 0.0710023 0.0133439
0.287374 0.1 -0.075 0.0127377
0 0.1 0.3 0.00535706
0 0.1 -0.3 0.00539009
0 0.1 0.31799 0.00535845
0 0.1 -0.31799 0.00539003
0.0363518 0.1 0.31799 0.00954583
0.0363518 0.1 -0.31799 0.00964146
0.287374 0.1 0.15 0.0118202
0.287374 0.1 -0.15 0.0113446
0.150379 0.1 -0.3 0.0132385
0.150379 0.1 0.3 0.0131752
0.219993 0.1 -0.2625 0.0121818
0.219993 0.1 0.2625 0.0121341
0.075776 0.1 0.3375 0.0140226
0.075776 0.1 -0.3375 0.0141841
0.350249 0.1 0.0375 0.0099733
0.350249 0.1 -0.0375 0.00991945
0 0.1 -0.35701 0.00538414
0 0.1 0.35701 0.00535446
0.0363518 0.1 0.35701 0.00954183
0.0363518 0.1 -0.35701 0.00963557
0.287374 0.1 0.225 0.0108845
0.287374 0.1 -0.225 0.0107848
0.350249 0.1 0.1125 0.00980971
0.350249 0.1 -0.1125 0.00965376
0 0.1 0.375 0.00535063
0 0.1 -0.375 0.00537974
0 0.1 -0.39299 0.00537591
0 0.1 0.39299 0.00534742
0.0363518 0.1 -0.39299 0.00934203
0.0363518 0.1 0.39299 0.00926048
0.350249 0.1 -0.1875 0.00939474
0.350249 0.1 0.1875 0.00950872
0.219992 0.1 0.3375 0.0119086
0.219993 0.1 -0.3375 0.0119234
0.150379 0.1 0.375 0.0128558
0.150379 0.1 -0.375 0.012997
0.411108 0.1 0 0.00820153
0.287374 0.1 0.3 0.0107004
0.287374 0.1 -0.3 0.0107198
0.411108 0.1 0.0710023 0.00822147
0.411108 0.1 -0.075 0.0081184
0.075776 0.1 0.4125 0.0134487
0.075776 0.1 -0.4125 0.0135857
0 0.1 0.43201 0.00533313
0 0.1 -0.43201 0.00535892
0.0363518 0.1 0.43201 0.00924619
0.0363518 0.1 -0.43201 0.00932503
0.411108 0.1 -0.15 0.00798713
0.411108 0.1 0.15 0.00806727
0.350249 0.1 -0.2625 0.00938842
0.350249 0.1 0.2625 0.00939303
0 0.1 0.45 0.00532399
0 0.1 -0.45 0.00534803
0.219992 0.1 -0.4125 0.0123634
0.219992 0.1 0.4125 0.0121096
0 0.1 0.46799 0.00531513
0 0.1 -0.46799 0.00533733
0.411108 0.1 0.225 0.00796977
0.411108 0.1 -0.225 0.00793455
0.467897 0.1 -0.0375 0.00652085
0.467897 0.1 0.0375 0.00653074
0.0363518 0.1 0.46799 0.00897007
0.0363518 0.1 -0.46799 0.00903825
0.287374 0.1 0.375 0.0107584
0.287374 0.1 -0.375 0.0108321
0.150379 0.1 0.45 0.0129834
0.150379 0.1 -0.45 0.0131041
0.467897 0.1 0.1125 0.00653651
0.467897 0.1 -0.1125 0.00651108
0.350249 0.1 0.3375 0.0094771
0.350249 0.1 -0.3375 0.0094995
0.075776 0.1 -0.4875 0.013003
0.075776 0.1 0.4875 0.012888
0.467897 0.1 0.1875 0.00653907
0.467897 0.1 -0.1875 0.00650953
0 0.1 0.50701 0.0052915
0 0.1 -0.50701 0.00531191
0.0363518 0.1 -0.50701 0.00901283
0.0363518 0.1 0.50701 0.00894643
0.411108 0.1 0.3 0.00799018
0.411108 0.1 -0.3 0.00799923
0.522865 0.1 -9.1073e-18 0.0056245
0 0.1 0.525 0.00527919
0 0.1 -0.525 0.0052997
0.522865 0.1 0.0710023 0.00565128
0.522865 0.1 -0.075 0.00562559
0.287374 0.1 0.45 0.0112428
0.287374 0.1 -0.45 0.0112977
0.219992 0.1 -0.4875 0.0134741
0.219992 0.1 0.4875 0.0134965
0.467897 0.1 0.2625 0.00655468
0.467897 0.1 -0.2625 0.00656074
0.350249 0.1 -0.4125 0.00965659
0.350249 0.1 0.4125 0.00964521
0 0.1 0.54299 0.00526663
0 0.1 -0.54299 0.00528711
0.522865 0.1 -0.15 0.00563986
0.522865 0.1 0.15 0.00565146
0.0363518 0.1 0.54299 0.0087009
0.0363518 0.1 -0.54299 0.0087615
0.150379 0.1 -0.525 0.0131398
0.150379 0.1 0.525 0.013133
0.411108 0.1 0.375 0.00811416
0.411108 0.1 -0.375 0.00812995
0.075776 0.1 0.5625 0.0123853
0.075776 0.1 -0.5625 0.0124873
0.522865 0.1 0.225 0.00568216
0.522865 0.1 -0.225 0.00567785
0.574156 0.1 0.0375 0.00475725
0.574157 0.1 -0.0375 0.00475764
0.467897 0.1 -0.3375 0.00666426
0.467897 0.1 0.3375 0.00665104
0 0.1 0.58201 0.00524124
0 0.1 -0.58201 0.00526166
0.0363518 0.1 0.58201 0.00867552
0.0363518 0.1 -0.58201 0.00873605
0.574156 0.1 0.1125 0.00477868
0.574156 0.1 -0.1125 0.00478038
0.287374 0.1 0.525 0.0117352
0.287374 0.1 -0.525 0.0116732
0 0.1 0.6 0.00523017
0 0.1 -0.6 0.00525041
0.350249 0.1 0.4875 0.00986094
0.350249 0.1 -0.4875 0.0098439
0.522865 0.1 -0.3 0.00575732
0.522865 0.1 0.3 0.005748
0.219992 0.1 0.5625 0.0137152
0.219992 0.1 -0.5625 0.013556
0.574156 0.1 0.1875 0.00481881
0.574157 0.1 -0.1875 0.00482444
0.411108 0.1 0.45 0.00829674
0.411108 0.1 -0.45 0.00830303
0 0.1 0.61799 0.00521854
0 0.1 -0.61799 0.00523854
0.150379 0.1 0.6 0.0128887
0.150379 0.1 -0.6 0.0128669
0.0363518 0.1 -0.61799 0.00851845
0.0363518 0.1 0.61799 0.00846215
0.623413 0.1 0 0.00423872
0.467897 0.1 0.4125 0.00680024
0.467897 0.1 -0.4125 0.00681739
0.623803 0.1 0.0710023 0.00425745
0.623803 0.1 -0.075 0.00425166
0.574156 0.1 0.2625 0.00488163
0.574157 0.1 -0.2625 0.0048817
0.623803 0.1 -0.15 0.00428666
0.623803 0.1 0.15 0.00427946
0.075776 0.1 0.6375 0.0119456
0.075776 0.1 -0.6375 0.0120391
0.522865 0.1 -0.375 0.00588107
0.522865 0.1 0.375 0.00586239
0 0.1 0.65701 0.00519596
0 0.1 -0.65701 0.0052154
0.0363518 0.1 0.65701 0.00843956
0.0363518 0.1 -0.65701 0.00849531
0.350249 0.1 0.5625 0.0100368
0.350249 0.1 -0.5625 0.00998392
0.623803 0.1 0.225 0.00433149
0.623803 0.1 -0.225 0.00434112
0.287374 0.1 0.6 0.0117917
0.287374 0.1 -0.6 0.0116971
0.574156 0.1 0.3375 0.00496963
0.574157 0.1 -0.3375 0.00498772
0.411108 0.1 0.525 0.00850242
0.411108 0.1 -0.525 0.00848721
0.67013 0.1 0.0375 0.00373685
0.67013 0.1 -0.0375 0.00373952
0.219993 0.1 0.6375 0.0134407
0.219993 0.1 -0.6375 0.0133274
0 0.1 0.675 0.0051862
0 0.1 -0.675 0.00520529
0.467897 0.1 0.4875 0.00700016
0.467897 0.1 -0.4875 0.00701399
0.67013 0.1 0.1125 0.00375757
0.67013 0.1 -0.1125 0.00376536
0.522865 0.1 -0.45 0.00604328
0.522865 0.1 0.45 0.00602149
0.150379 0.1 0.675 0.0125451
0.150379 0.1 -0.675 0.0125474
0.623803 0.1 0.3 0.00440704
0.623803 0.1 -0.3 0.00442173
0 0.1 -0.69299 0.00519451
0 0.1 0.69299 0.00517579
0.0363518 0.1 0.69299 0.0082595
0.0363518 0.1 -0.69299 0.00831252
0.67013 0.1 0.1875 0.0037992
0.67013 0.1 -0.1875 0.0038126
0.574156 0.1 0.4125 0.0050946
0.574157 0.1 -0.4125 0.0051208
0.714619 0.1 4.77049e-18 0.0033951
0.075776 0.1 0.7125 0.0115743
0.075776 0.1 -0.7125 0.0116624
0.714971 0.1 0.0710023 0.00340868
0.714971 0.1 -0.075 0.00340929
0.67013 0.1 0.2625 0.00386268
0.67013 0.1 -0.2625 0.00388159
0.411108 0.1 0.6 0.00868222
0.411108 0.1 -0.6 0.00864675
0.350249 0.1 0.6375 0.0101309
0.350249 0.1 -0.6375 0.0100743
0.623803 0.1 0.375 0.00450899
0.623803 0.1 -0.375 0.0045332
0.714971 0.1 0.15 0.00343285
0.714971 0.1 -0.15 0.0034446
0.467897 0.1 0.5625 0.00723225
0.467897 0.1 -0.5625 0.00722659
0 0.1 0.73201 0.0051562
0 0.1 -0.73201 0.00517425
0.0363518 0.1 0.73201 0.0082399
0.0363518 0.1 -0.73201 0.00829227
0.287374 0.1 0.675 0.0116948
0.287374 0.1 -0.675 0.0116274
0.522865 0.1 0.525 0.00621969
0.522865 0.1 -0.525 0.00623705
0.219992 0.1 0.7125 0.0131459
0.219992 0.1 -0.7125 0.0130942
0.714971 0.1 -0.225 0.00350094
0.714971 0.1 0.225 0.00348287
0 0.1 0.75 0.00514802
0 0.1 -0.75 0.00516578
0.67013 0.1 -0.3375 0.00397187
0.67013 0.1 0.3375 0.00395056
0.574157 0.1 0.4875 0.0052586
0.574157 0.1 -0.4875 0.00528828
0.756813 0.1 0.0375 0.0030612
0.756814 0.1 -0.0375 0.00306478
0.150379 0.1 -0.75 0.0122669
0.150379 0.1 0.75 0.0122434
0.756813 0.1 0.1125 0.00307946
0.756814 0.1 -0.1125 0.00308945
0 0.1 0.76799 0.00513916
0 0.1 -0.76799 0.00515661
0.0363518 0.1 0.76799 0.00809367
0.0363518 0.1 -0.76799 0.00814359
0.623803 0.1 0.45 0.00464298
0.623803 0.1 -0.45 0.00467399
0.714971 0.1 0.3 0.0035552
0.714971 0.1 -0.3 0.00357558
0.756813 0.1 0.1875 0.00311728
0.756813 0.1 -0.1875 0.00313301
0.67013 0.1 -0.4125 0.004089
0.67013 0.1 0.4125 0.0040579
0.411108 0.1 0.675 0.00882476
0.411108 0.1 -0.675 0.00878256
0.467897 0.1 0.6375 0.00744652
0.467897 0.1 -0.6375 0.0074186
0.075776 0.1 -0.7875 0.0113558
0.075776 0.1 0.7875 0.011273
0.350249 0.1 -0.7125 0.0101521
0.350249 0.1 0.7125 0.0102013
0.791054 0.1 0.0690034 0.00289099
0.522865 0.1 0.6 0.00643749
0.522865 0.1 -0.6 0.00644521
0.797314 0.1 -3.03577e-18 0.00282822
0.797314 0.1 -0.075 0.00283392
0.756814 0.1 0.2625 0.00317457
0.756814 0.1 -0.2625 0.00319868
0.287374 0.1 -0.75 0.0115619
0.287374 0.1 0.75 0.0116007
0.574156 0.1 0.5625 0.00545723
0.574156 0.1 -0.5625 0.00548786
0 0.1 0.80701 0.00512333
0 0.1 -0.80701 0.00514002
0.714971 0.1 -0.375 0.00367329
0.714971 0.1 0.375 0.00364736
0.0363518 0.1 0.80701 0.00807784
0.0363518 0.1 -0.80701 0.00812699
0.797314 0.1 0.15 0.00285304
0.797314 0.1 -0.15 0.00286604
0.623803 0.1 0.525 0.00481097
0.623803 0.1 -0.525 0.00484546
0.219992 0.1 -0.7875 0.0128818
0.219992 0.1 0.7875 0.0129023
0 0.1 0.825 0.0051172
0 0.1 -0.825 0.00513344
0.797314 0.1 0.225 0.00289733
0.797314 0.1 -0.225 0.00291699
0.756813 0.1 -0.3375 0.00327265
0.756814 0.1 0.3375 0.00325548
0.67013 0.1 0.4875 0.00419837
0.67013 0.1 -0.4875 0.00423521
0.835106 0.1 0.0375 0.00258337
0.835106 0.1 -0.0375 0.00258681
0.150379 0.1 -0.825 0.0120308
0.150379 0.1 0.825 0.0119969
0.835106 0.1 0.1125 0.00259852
0.835106 0.1 -0.1125 0.00260864
0 0.1 -0.84299 0.00512613
0 0.1 0.84299 0.00511036
0.0363518 0.1 -0.84299 0.00800962
0.0363518 0.1 0.84299 0.00796483
0.714971 0.1 -0.45 0.00379915
0.714971 0.1 0.45 0.00376338
0.797314 0.1 0.3 0.00296169
0.797314 0.1 -0.3 0.00298486
0.467897 0.1 0.7125 0.00763291
0.467897 0.1 -0.7125 0.00759672
0.522865 0.1 0.675 0.00665729
0.522865 0.1 -0.675 0.00665916
0.411108 0.1 -0.75 0.00892296
0.411108 0.1 0.75 0.00895628
0.835106 0.1 -0.1875 0.00264717
0.835107 0.1 0.1875 0.00263098
0.574156 0.1 0.6375 0.00568383
0.574156 0.1 -0.6375 0.00571551
0.350249 0.1 -0.7875 0.0102434
0.350249 0.1 0.7875 0.0102771
0.756814 0.1 0.4125 0.00334834
0.756814 0.1 -0.4125 0.00338251
0.623803 0.1 0.6 0.00500882
0.623803 0.1 -0.6 0.00504585
0.075776 0.1 0.8625 0.011039
0.075776 0.1 -0.8625 0.0111137
0.871687 0.1 -0.00399773 0.00240887
0.287374 0.1 -0.825 0.0115171
0.287374 0.1 0.825 0.0115344
0.871687 0.1 0.075 0.00240996
0.871687 0.1 -0.075 0.00241661
0.67013 0.1 0.5625 0.00436827
0.67013 0.1 -0.5625 0.00440875
0.835106 0.1 0.2625 0.00268077
0.835106 0.1 -0.2625 0.00270341
0.797314 0.1 0.375 0.00304379
0.797314 0.1 -0.375 0.00307165
0 0.1 -0.88201 0.00511356
0 0.1 0.88201 0.00509868
0.0363518 0.1 0.88201 0.00795315
0.0363518 0.1 -0.88201 0.00799705
0.871687 0.1 0.15 0.00243192
0.871687 0.1 -0.15 0.00244493
0.714971 0.1 0.525 0.00390909
0.714971 0.1 -0.525 0.00395021
0.219992 0.1 0.8625 0.0126921
0.219993 0.1 -0.8625 0.0126944
0 0.1 0.9 0.0050945
0 0.1 -0.9 0.00510898
0.756813 0.1 0.4875 0.00347231
0.756814 0.1 -0.4875 0.00351315
0.871687 0.1 0.225 0.00247012
0.871687 0.1 -0.225 0.00248919
0.835106 0.1 0.3375 0.00275052
0.835106 0.1 -0.3375 0.00277911
0.90582 0.1 -0.0375 0.00223048
0.905821 0.1 0.0375 0.00222728
0.150379 0.1 0.9 0.0117992
0.150379 0.1 -0.9 0.0118408
0.90582 0.1 0.1125 0.00223985
0.90582 0.1 -0.1125 0.00224971
0.522865 0.1 -0.75 0.00689134
0.522865 0.1 0.75 0.00688277
0.574156 0.1 0.7125 0.00593352
0.574156 0.1 -0.7125 0.0059702
0.797314 0.1 0.45 0.00314547
0.797314 0.1 -0.45 0.00318186
0.467897 0.1 -0.7875 0.00780521
0.467897 0.1 0.7875 0.00782055
0 0.1 0.91799 0.00508958
0 0.1 -0.91799 0.00510364
0.0363518 0.1 0.91799 0.00786796
0.0363518 0.1 -0.91799 0.00790798
0.623803 0.1 0.675 0.00523263
0.623803 0.1 -0.675 0.00527408
0.411108 0.1 -0.825 0.00909357
0.411108 0.1 0.825 0.00910685
0.871687 0.1 0.3 0.00252562
0.871687 0.1 -0.3 0.00255127
0.67013 0.1 0.6375 0.00456563
0.67013 0.1 -0.6375 0.00461052
0.90582 0.1 0.1875 0.00226758
0.905821 0.1 -0.1875 0.0022835
0.350249 0.1 0.8625 0.0103751
0.350249 0.1 -0.8625 0.0103582
0.835106 0.1 0.4125 0.00283568
0.835106 0.1 -0.4125 0.00286704
0.714971 0.1 0.6 0.00408158
0.714971 0.1 -0.6 0.00412765
0.93886 0.1 -0.00399773 0.00213278
0.075776 0.1 0.9375 0.010863
0.075776 0.1 -0.9375 0.0109298
0.93886 0.1 0.075 0.00213486
0.93886 0.1 -0.075 0.00214087
0.756813 0.1 0.5625 0.00362145
0.756814 0.1 -0.5625 0.00366758
0.90582 0.1 0.2625 0.00231058
0.905821 0.1 -0.2625 0.00233214
0.287374 0.1 0.9 0.0114953
0.287374 0.1 -0.9 0.0114977
0.871687 0.1 0.375 0.0025989
0.871687 0.1 -0.375 0.00262721
0.93886 0.1 0.15 0.00215392
0.93886 0.1 -0.15 0.00216566
0.797314 0.1 0.525 0.00327211
0.797314 0.1 -0.525 0.00331499
0 0.1 0.95701 0.00508215
0 0.1 -0.95701 0.00509527
0.0363518 0.1 0.95701 0.00786053
0.0363518 0.1 -0.95701 0.0078996
0.219992 0.1 0.9375 0.0125205
0.219992 0.1 -0.9375 0.0125454
0.93886 0.1 0.225 0.00218719
0.93886 0.1 -0.225 0.00220426
0.90582 0.1 0.3375 0.00237025
0.905821 0.1 -0.3375 0.00240006
0.835107 0.1 0.4875 0.00294079
0.835107 0.1 -0.4875 0.00298007
0.969689 0.1 0.0375 0.00203251
0.969689 0.1 -0.0375 0.00203537
0.574156 0.1 0.7875 0.00620759
0.574156 0.1 -0.7875 0.00625374
0 0.1 0.975 0.00508013
0 0.1 -0.975 0.00509277
0.623803 0.1 0.75 0.00548135
0.623803 0.1 -0.75 0.00553057
0.96969 0.1 0.1125 0.00204393
0.96969 0.1 -0.1125 0.00205207
0.522865 0.1 -0.825 0.00715431
0.522865 0.1 0.825 0.0071321
0.67013 0.1 0.7125 0.00478826
0.67013 0.1 -0.7125 0.00484025
0.871687 0.1 0.45 0.00268896
0.871687 0.1 -0.45 0.00272183
0.467897 0.1 0.8625 0.00805511
0.467897 0.1 -0.8625 0.00806685
0.714971 0.1 -0.675 0.00433246
0.714971 0.1 0.675 0.00427983
0.93886 0.1 0.3 0.00223516
0.93886 0.1 -0.3 0.00225844
0.150379 0.1 0.975 0.0116493
0.150379 0.1 -0.975 0.0116985
0.969689 0.1 -0.1875 0.00208158
0.969689 0.1 0.1875 0.00206847
0.411108 0.1 0.9 0.00928912
0.411108 0.1 -0.9 0.00929687
0.756813 0.1 0.6375 0.00379575
0.756813 0.1 -0.6375 0.00384829
0.990306 0.1 3.46945e-18 0.00196038
0 0.1 0.99299 0.00507733
0 0.1 -0.99299 0.00508946
0.990306 0.1 0.075 0.00196081
0.990306 0.1 -0.075 0.00196619
0.0363518 0.1 0.99299 0.00779909
0.0363518 0.1 -0.99299 0.00783597
0.905821 0.1 0.4125 0.002449
0.905821 0.1 -0.4125 0.0024726
0.797314 0.1 0.6 0.00342283
0.797314 0.1 -0.6 0.00347214
0.350249 0.1 0.9375 0.010489
0.350249 0.1 -0.9375 0.0104892
0.990306 0.1 0.15 0.00197803
0.990306 0.1 -0.15 0.00198833
0.969689 0.1 -0.2625 0.00212416
0.969689 0.1 0.2625 0.00210638
0.835106 0.1 0.5625 0.00306977
0.835106 0.1 -0.5625 0.00311503
0.93886 0.1 0.375 0.00229963
0.93886 0.1 -0.375 0.00232517
0.075776 0.1 1.0125 0.0107356
0.075776 0.1 -1.0125 0.0107983
0.990306 0.1 0.225 0.0020082
0.990306 0.1 -0.225 0.00202322
0.287374 0.1 0.975 0.0114848
0.287374 0.1 -0.975 0.0115037
0.871687 0.1 0.525 0.0027989
0.871687 0.1 -0.525 0.00284165
1.02149 0.1 -0.0369628 0.00183347
1.02149 0.1 0.0369628 0.0018101
0.969689 0.1 -0.3375 0.00218194
0.96969 0.1 0.3375 0.00215782
1.02149 0.1 0.110888 0.00181932
1.02149 0.1 -0.110888 0.00182659
0.90582 0.1 0.4875 0.00254048
0.905821 0.1 -0.4875 0.00257788
0 0.1 1.03201 0.00507404
0 0.1 -1.03201 0.00508531
0.0363518 0.1 1.03201 0.00779581
0.0363518 0.1 -1.03201 0.00783182
0.67013 0.1 0.7875 0.00503761
0.67013 0.1 -0.7875 0.00509909
0.623803 0.1 -0.825 0.00581247
0.623803 0.1 0.825 0.00575578
0.990306 0.1 0.3 0.00205157
0.990306 0.1 -0.3 0.00207196
0.219992 0.1 -1.0125 0.0124397
0.219992 0.1 1.0125 0.0123961
0.574156 0.1 -0.8625 0.00655016
0.574157 0.1 0.8625 0.00650533
0.714971 0.1 0.75 0.00450377
0.714971 0.1 -0.75 0.00456534
1.02149 0.1 0.184814 0.00184036
1.02149 0.1 -0.184814 0.00185212
0.756814 0.1 0.7125 0.00399524
0.756813 0.1 -0.7125 0.00405605
0.522865 0.1 0.9 0.00740906
0.522865 0.1 -0.9 0.00743963
0.93886 0.1 0.45 0.00237921
0.93886 0.1 -0.45 0.00241696
1.04168 0.1 0 0.00174247
1.04168 0.1 0.0729162 0.00174515
1.04168 0.1 -0.0729162 0.00174981
0.797314 0.1 0.675 0.00359786
0.797314 0.1 -0.675 0.00365544
0.467897 0.1 0.9375 0.00833159
0.467897 0.1 -0.9375 0.00836656
0 0.1 1.05 0.00507392
0 0.1 -1.05 0.00508485
0.835106 0.1 0.6375 0.0032209
0.835106 0.1 -0.6375 0.00327419
1.04168 0.1 0.145832 0.00175822
1.04168 0.1 -0.145832 0.00176693
1.02149 0.1 0.25874 0.00187344
1.02149 0.1 -0.25874 0.00188979
0.969689 0.1 0.4125 0.00222605
0.969689 0.1 -0.4125 0.00225077
0.411108 0.1 0.975 0.00949637
0.411108 0.1 -0.975 0.00952028
0.871687 0.1 0.6 0.00293246
0.871687 0.1 -0.6 0.002984
1.0579 0.1 -0.0360525 0.00169927
1.0579 0.1 0.0360525 0.00169144
0.990306 0.1 0.375 0.00210995
0.990306 0.1 -0.375 0.00213455
0.150379 0.1 1.05 0.0115476
0.150379 0.1 -1.05 0.0116014
1.0579 0.1 -0.108157 0.00170461
1.0579 0.1 0.108157 0.00169831
1.04168 0.1 0.218749 0.0017816
1.04168 0.1 -0.218749 0.00179457
0.90582 0.1 0.5625 0.00265508
0.905821 0.1 -0.5625 0.00270411
0 0.1 -1.06799 0.00508353
0 0.1 1.06799 0.00507295
0.0363518 0.1 -1.06799 0.00779014
0.0363518 0.1 1.06799 0.00775928
0.350249 0.1 1.0125 0.0106174
0.350249 0.1 -1.0125 0.0106257
1.0579 0.1 -0.180262 0.00172431
1.0579 0.1 0.180262 0.00171382
1.02149 0.1 0.332665 0.00191915
1.02149 0.1 -0.332665 0.00194088
0.93886 0.1 0.525 0.00248394
0.93886 0.1 -0.525 0.00253281
1.08012 0.1 1.70581e-17 0.00163622
1.04168 0.1 0.291665 0.0018158
1.04168 0.1 -0.291665 0.0018334
1.08012 0.1 0.0709941 0.00163828
1.08012 0.1 -0.074001 0.00164262
0.969689 0.1 -0.4875 0.0023711
0.96969 0.1 0.4875 0.00230619
1.0579 0.1 0.252367 0.00173855
1.0579 0.1 -0.252367 0.0017535
0.990306 0.1 -0.45 0.00222495
0.990306 0.1 0.45 0.00218335
0.287374 0.1 -1.05 0.0115366
0.287374 0.1 1.05 0.0115054
1.08012 0.1 0.141988 0.00164878
1.08012 0.1 -0.141988 0.00165642
0.075776 0.1 1.0875 0.01066
0.075776 0.1 -1.0875 0.0107119
0.714971 0.1 0.825 0.00475467
0.714971 0.1 -0.825 0.00482902
0.756813 0.1 0.7875 0.0042203
0.756813 0.1 -0.7875 0.00429198
0.67013 0.1 0.8625 0.00531498
0.67013 0.1 -0.8625 0.00538847
0.797314 0.1 -0.75 0.00386615
0.797314 0.1 0.75 0.00379837
0.623803 0.1 0.9 0.00605033
0.623803 0.1 -0.9 0.00610965
0.835106 0.1 0.7125 0.00339679
0.835107 0.1 -0.7125 0.00346041
0.574156 0.1 0.9375 0.00680353
0.574156 0.1 -0.9375 0.00683405
1.02149 0.1 -0.406591 0.00200847
1.02149 0.1 0.406591 0.00198037
1.08012 0.1 -0.212982 0.00167882
1.08012 0.1 0.212982 0.00166742
1.10076 0.1 -0.0349809 0.00158601
1.10076 0.1 0.0349809 0.00158364
0.871687 0.1 0.675 0.00309015
0.871687 0.1 -0.675 0.00315207
1.04168 0.1 0.364581 0.00186252
1.04168 0.1 -0.364581 0.00188571
1.10076 0.1 0.104943 0.0015902
1.10076 0.1 -0.104943 0.00159566
0.522865 0.1 0.975 0.00770079
0.522865 0.1 -0.975 0.00774314
1.0579 0.1 0.324472 0.00177332
1.0579 0.1 -0.324472 0.00179304
0 0.1 -1.10701 0.00508326
0 0.1 1.10701 0.00507343
0.0363518 0.1 1.10701 0.00775976
0.0363518 0.1 -1.10701 0.00778987
0.90582 0.1 0.6375 0.00279496
0.905821 0.1 -0.6375 0.00285341
0.219992 0.1 1.0875 0.0123165
0.219992 0.1 -1.0875 0.012374
0.93886 0.1 0.6 0.00261236
0.93886 0.1 -0.6 0.00266204
1.10076 0.1 0.174905 0.0016041
1.10076 0.1 -0.174905 0.00161263
0.467897 0.1 1.0125 0.00863525
0.467897 0.1 -1.0125 0.00868611
1.08012 0.1 0.283976 0.00169487
1.08012 0.1 -0.283976 0.00171024
1.11928 0.1 -0.00290737 0.00154656
1.11711 0.1 -0.0710826 0.00155985
0.990306 0.1 0.525 0.00228592
0.990306 0.1 -0.525 0.00233408
0.969689 0.1 0.5625 0.00243878
0.96969 0.1 -0.5625 0.00248268
1.11928 0.1 0.0690357 0.00154841
0 0.1 1.125 0.00507511
0 0.1 -1.125 0.00508456
1.11807 0.1 -0.138193 0.00157003
0.411108 0.1 -1.05 0.0097635
0.411108 0.1 1.05 0.00972591
1.10076 0.1 -0.244866 0.00163795
1.10076 0.1 0.244866 0.00162606
1.11928 0.1 0.138072 0.00155773
1.02149 0.1 0.480517 0.00205832
1.02149 0.1 -0.480517 0.00209865
1.0579 0.1 -0.396577 0.00184705
1.0579 0.1 0.396577 0.00182047
1.04168 0.1 0.437497 0.00192392
1.04168 0.1 -0.437497 0.00195466
0.150379 0.1 1.125 0.0114869
0.150379 0.1 -1.125 0.0115439
1.08012 0.1 0.354971 0.00173248
1.08012 0.1 -0.354971 0.00175299
1.11807 0.1 -0.207288 0.00158958
1.11928 0.1 0.207107 0.00157405
0.350249 0.1 1.0875 0.0107643
0.350249 0.1 -1.0875 0.0107813
0 0.1 1.14299 0.00507589
0 0.1 -1.14299 0.00508493
0.0363518 0.1 1.14299 0.00773668
0.0363518 0.1 -1.14299 0.00776587
1.14316 0.1 -0.0339211 0.00149527
1.14316 0.1 0.0339211 0.00149121
1.10076 0.1 0.314829 0.00165656
1.10076 0.1 -0.314829 0.00167191
0.797314 0.1 0.825 0.00402526
0.797314 0.1 -0.825 0.00410722
0.756814 0.1 -0.8625 0.00456316
0.756814 0.1 0.8625 0.00447288
1.14316 0.1 -0.101763 0.00150108
1.14316 0.1 0.101763 0.00149636
0.835106 0.1 0.7875 0.00359909
0.835107 0.1 -0.7875 0.00367398
0.714971 0.1 0.9 0.00503533
0.714971 0.1 -0.9 0.00512491
0.871687 0.1 0.75 0.00327404
0.871687 0.1 -0.75 0.00334758
1.11807 0.1 -0.276385 0.00161703
0.67013 0.1 0.9375 0.00562001
0.67013 0.1 -0.9375 0.00570669
0.905821 0.1 0.7125 0.00295912
0.905821 0.1 -0.7125 0.00303125
1.11928 0.1 0.276143 0.00159804
1.14316 0.1 -0.169605 0.00151491
1.14316 0.1 0.169605 0.00150747
0.93886 0.1 0.675 0.00275432
0.93886 0.1 -0.675 0.00280952
1.15704 0.1 0 0.00146445
1.0579 0.1 0.468682 0.00188242
1.0579 0.1 -0.468682 0.00191508
0.623803 0.1 0.975 0.00635684
0.623803 0.1 -0.975 0.00642507
0.990306 0.1 0.6 0.00240638
0.990306 0.1 -0.6 0.00245076
1.15704 0.1 -0.0671479 0.00146914
1.15704 0.1 0.0671479 0.00146599
1.04168 0.1 0.510414 0.00200359
1.04168 0.1 -0.510414 0.00203987
0.969689 0.1 0.6375 0.00256531
0.96969 0.1 -0.6375 0.00261289
1.08012 0.1 0.425965 0.00178248
1.08012 0.1 -0.425965 0.0018084
0.287374 0.1 -1.125 0.0116108
0.287374 0.1 1.125 0.0115666
1.02149 0.1 0.554443 0.00216186
1.02149 0.1 -0.554443 0.00219629
0.574156 0.1 -1.0125 0.00714547
0.574156 0.1 1.0125 0.00709239
1.15704 0.1 -0.134296 0.00147928
1.15704 0.1 0.134296 0.00147373
0.075776 0.1 1.1625 0.0106115
0.075776 0.1 -1.1625 0.010662
1.10076 0.1 0.384791 0.00169735
1.10076 0.1 -0.384791 0.00171816
1.14316 0.1 -0.237448 0.00153544
1.14316 0.1 0.237448 0.00152504
1.11807 0.1 -0.345481 0.0016542
1.11928 0.1 0.345179 0.00163072
0.522865 0.1 1.05 0.00801198
0.522865 0.1 -1.05 0.00808102
1.15704 0.1 -0.201444 0.00149536
1.15704 0.1 0.201444 0.00148719
1.1744 0.1 -0.0331401 0.00143312
1.1744 0.1 0.0331401 0.00143451
1.1744 0.1 -0.0994202 0.00143991
1.1744 0.1 0.0994202 0.00143597
0 0.1 1.18201 0.00507976
0 0.1 -1.18201 0.00508819
0.0363518 0.1 1.18201 0.00774055
0.0363518 0.1 -1.18201 0.00776912
0.219992 0.1 1.1625 0.0122775
0.219993 0.1 -1.1625 0.0123451
1.14316 0.1 -0.30529 0.00156317
1.14316 0.1 0.30529 0.00154985
0.467897 0.1 1.0875 0.00896682
0.467897 0.1 -1.0875 0.00903902
1.1744 0.1 -0.1657 0.00145172
1.1744 0.1 0.1657 0.00144545
1.15704 0.1 -0.268592 0.00151786
1.15704 0.1 0.268592 0.0015071
1.0579 0.1 0.540787 0.00196044
1.0579 0.1 -0.540787 0.00200057
1.08012 0.1 0.496959 0.00184611
1.08012 0.1 -0.496959 0.00187956
1.10076 0.1 0.454752 0.00175063
1.10076 0.1 -0.454752 0.0017748
1.11807 0.1 -0.414577 0.0017021
1.11928 0.1 0.414214 0.00167404
1.04168 0.1 0.58333 0.00209553
1.04168 0.1 -0.58333 0.002132
1.19529 0.1 0.0650961 0.00138961
1.1744 0.1 0.231981 0.00146049
1.1744 0.1 -0.231981 0.00146947
0.411108 0.1 1.125 0.00998265
0.411108 0.1 -1.125 0.0100329
1.19808 0.1 3.5851e-17 0.00138365
0.990306 0.1 0.675 0.00253515
0.990306 0.1 -0.675 0.00258334
1.02149 0.1 0.628368 0.00226194
1.02149 0.1 -0.628368 0.0023094
1.19808 0.1 -0.0650961 0.00138773
0 0.1 1.2 0.00508295
0 0.1 -1.2 0.00509119
0.871687 0.1 -0.825 0.0035645
0.871687 0.1 0.825 0.00348175
0.905821 0.1 -0.7875 0.0032359
0.90582 0.1 0.7875 0.00315262
0.835106 0.1 0.8625 0.00382742
0.835106 0.1 -0.8625 0.0039183
0.93886 0.1 0.75 0.0029135
0.93886 0.1 -0.75 0.00297913
0.797314 0.1 0.9 0.00428212
0.797314 0.1 -0.9 0.00438
1.14316 0.1 -0.373132 0.00160058
1.14316 0.1 0.373132 0.00158297
0.969689 0.1 0.7125 0.00270308
0.969689 0.1 -0.7125 0.00274624
1.15704 0.1 -0.33574 0.00154818
1.15704 0.1 0.33574 0.00153425
0.756813 0.1 0.9375 0.00476109
0.756814 0.1 -0.9375 0.00486829
1.19808 0.1 0.130192 0.0013922
1.19808 0.1 -0.130192 0.00139644
0.714971 0.1 0.975 0.00534735
0.714971 0.1 -0.975 0.00545134
0.150379 0.1 1.2 0.0114634
0.150379 0.1 -1.2 0.0115197
1.20938 0.1 -0.0322656 0.00136503
1.20938 0.1 0.0322656 0.00136342
1.19808 0.1 0.178844 0.00140287
1.1744 0.1 0.298261 0.00148187
1.1744 0.1 -0.298261 0.001493
1.20938 0.1 -0.0967968 0.00137136
1.20938 0.1 0.0967968 0.00136757
1.19808 0.1 -0.195288 0.00141021
0.350249 0.1 1.1625 0.0109695
0.350249 0.1 -1.1625 0.0110059
0.67013 0.1 1.0125 0.00595267
0.67013 0.1 -1.0125 0.00605339
0 0.1 1.21799 0.00508517
0 0.1 -1.21799 0.0050932
1.11807 0.1 -0.483674 0.00176409
0.0363518 0.1 1.21799 0.00773782
0.0363518 0.1 -1.21799 0.00775916
1.11928 0.1 0.48325 0.00172838
1.10076 0.1 -0.524714 0.00185087
1.10076 0.1 0.524714 0.00181493
1.20938 0.1 -0.161328 0.00138189
1.20938 0.1 0.161328 0.00137609
1.08012 0.1 0.567953 0.00192398
1.08012 0.1 -0.567953 0.00195601
0.623803 0.1 1.05 0.00668115
0.623803 0.1 -1.05 0.00677
1.0579 0.1 -0.612892 0.00208245
1.0579 0.1 0.612892 0.00204793
1.15704 0.1 -0.402888 0.00158719
1.15704 0.1 0.402888 0.00157026
1.14316 0.1 0.440974 0.00162661
1.14316 0.1 -0.440974 0.00164747
1.19808 0.1 -0.260384 0.00142918
1.19808 0.1 0.260384 0.00141966
1.2267 0.1 3.64292e-18 0.00133123
1.2267 0.1 -0.0636649 0.00133518
1.2267 0.1 0.0636649 0.00133241
1.1744 0.1 -0.364541 0.00152474
1.1744 0.1 0.364541 0.00151023
0.574156 0.1 1.0875 0.00741364
0.574156 0.1 -1.0875 0.00751337
1.20938 0.1 -0.225859 0.00139796
1.20938 0.1 0.225859 0.0013895
1.04168 0.1 0.656246 0.00219778
1.04168 0.1 -0.656246 0.0022437
1.22587 0.1 0.12733 0.00134141
1.2267 0.1 -0.12733 0.00134342
0.287374 0.1 -1.2 0.0117431
0.287374 0.1 1.2 0.0116853
1.02149 0.1 0.702294 0.00239554
1.02149 0.1 -0.702294 0.00245211
0.075776 0.1 1.2375 0.0106056
0.075776 0.1 -1.2375 0.0106409
0.522865 0.1 1.125 0.00834673
0.522865 0.1 -1.125 0.00843341
1.2267 0.1 0.190397 0.00134995
1.2267 0.1 -0.190994 0.00135629
1.19808 0.1 0.32548 0.00144236
1.19808 0.1 -0.32548 0.00145414
0.990306 0.1 0.75 0.00267922
0.990306 0.1 -0.75 0.00273711
1.24274 0.1 -0.0314313 0.00130144
1.24274 0.1 0.0314313 0.00129978
1.20938 0.1 -0.29039 0.0014184
1.20938 0.1 0.29039 0.00140846
1.24274 0.1 -0.0942942 0.00130762
1.24274 0.1 0.0942942 0.00130368
1.11807 0.1 -0.552769 0.00183145
1.11928 0.1 0.552285 0.0017969
1.15704 0.1 -0.470036 0.0016381
1.15704 0.1 0.470036 0.00161531
0.969689 0.1 0.7875 0.00284532
0.96969 0.1 -0.7875 0.00290987
0.93886 0.1 -0.825 0.0031718
0.93886 0.1 0.825 0.00309384
0.905821 0.1 0.8625 0.00335972
0.905821 0.1 -0.8625 0.00344168
1.1744 0.1 -0.430821 0.00156397
1.1744 0.1 0.430821 0.00154765
1.10076 0.1 0.594676 0.00189903
1.10076 0.1 -0.594676 0.00191838
1.14316 0.1 -0.508816 0.00170889
1.14316 0.1 0.508816 0.00167973
1.24274 0.1 0.157157 0.00131174
1.24274 0.1 -0.157157 0.00131746
1.2267 0.1 0.254158 0.00136498
1.2267 0.1 -0.254659 0.00137393
0.871687 0.1 -0.9 0.00381331
0.871687 0.1 0.9 0.00371407
0.467897 0.1 1.1625 0.00930426
0.467897 0.1 -1.1625 0.00937872
1.08012 0.1 0.638947 0.00200875
1.08012 0.1 -0.638947 0.00204384
1.25511 0.1 1.27213e-17 0.00127716
0.835106 0.1 0.9375 0.00408648
0.835106 0.1 -0.9375 0.0041896
1.25511 0.1 -0.0622446 0.0012811
1.25511 0.1 0.0622446 0.00127815
0.219992 0.1 1.2375 0.0122764
0.219992 0.1 -1.2375 0.012347
0 0.1 -1.25701 0.00509989
0 0.1 1.25701 0.00509239
0.0363518 0.1 -1.25701 0.00776585
0.0363518 0.1 1.25701 0.00774504
0.797314 0.1 0.975 0.00457192
0.797314 0.1 -0.975 0.00468607
1.19808 0.1 0.389737 0.0014721
1.19808 0.1 -0.390576 0.00148618
1.0579 0.1 -0.684997 0.00219645
1.0579 0.1 0.684997 0.00214657
1.20938 0.1 -0.354921 0.00144562
1.20938 0.1 0.354921 0.00143307
1.25511 0.1 0.124489 0.00128397
1.25511 0.1 -0.124489 0.00128906
1.24274 0.1 -0.220019 0.00133242
1.24274 0.1 0.220019 0.00132425
0.756814 0.1 1.0125 0.00508365
0.756814 0.1 -1.0125 0.00520437
1.25305 0.1 0.186734 0.0012995
1.2267 0.1 0.317097 0.00138589
1.2267 0.1 -0.318324 0.0013967
0.411108 0.1 1.2 0.0102668
0.411108 0.1 -1.2 0.0103349
1.25511 0.1 -0.186734 0.00130133
0.714971 0.1 1.05 0.0056856
0.714971 0.1 -1.05 0.00579975
1.04168 0.1 0.729162 0.00232609
1.04168 0.1 -0.729162 0.00238654
1.24274 0.1 -0.282882 0.00135145
1.24274 0.1 0.282882 0.00134177
0 0.1 1.275 0.00509739
0 0.1 -1.275 0.00510459
1.1744 0.1 -0.497102 0.00161722
1.1744 0.1 0.497102 0.0015923
1.15704 0.1 -0.537184 0.0016947
1.15704 0.1 0.537184 0.00167323
1.2756 0.1 -0.03061 0.0012372
1.2756 0.1 0.03061 0.0012355
0.67013 0.1 1.0875 0.00630587
0.67013 0.1 -1.0875 0.00640728
1.25305 0.1 0.248978 0.00131195
1.2756 0.1 0.09183 0.00123904
1.2756 0.1 -0.09183 0.00124301
1.11807 0.1 -0.621866 0.00190802
1.25511 0.1 -0.248978 0.00131816
1.20938 0.1 0.419453 0.0014653
1.20938 0.1 -0.419453 0.00147962
1.11928 0.1 0.621322 0.00187121
1.14316 0.1 -0.576659 0.0017672
1.14316 0.1 0.576659 0.00174776
1.19808 0.1 0.454694 0.00150927
1.19808 0.1 -0.455673 0.00152907
1.02149 0.1 0.776219 0.00255232
1.02149 0.1 -0.776219 0.00262364
0.150379 0.1 1.275 0.0114691
0.150379 0.1 -1.275 0.0115245
1.2267 0.1 0.381603 0.00141293
1.2756 0.1 -0.15305 0.00125261
1.2756 0.1 0.15305 0.0012467
1.2267 0.1 -0.381989 0.00142584
1.10076 0.1 0.664638 0.00197468