# pMean  POINT_DATA 63831
# x  y  z  pMean
0 0.5 3.39583e-17 0.196535
0 0.5 -0.00617931 0.19655
0 0.5 0.00617931 0.196524
0.0124865 0.5 0.00617931 0.196524
0.0124865 0.5 -0.00617931 0.19655
0 0.5 -0.0688207 0.196409
0 0.5 0.0688207 0.196116
0.0124865 0.5 0.0688207 0.196116
0.0124865 0.5 -0.0688207 0.196409
0 0.5 0.075 0.196046
0 0.5 -0.075 0.196366
0 0.5 -0.0811793 0.196327
0 0.5 0.0811793 0.195981
0.0124865 0.5 0.0811793 0.195981
0.0124865 0.5 -0.0811793 0.196327
0.075776 0.5 0.0375 0.196465
0.075776 0.5 -0.0375 0.196627
0.075776 0.5 0.1125 0.19565
0.075776 0.5 -0.1125 0.196127
0 0.5 -0.143821 0.195649
0 0.5 0.143821 0.195044
0.0124865 0.5 0.143821 0.195044
0.0124865 0.5 -0.143821 0.195649
0 0.5 0.15 0.194924
0 0.5 -0.15 0.195555
0.151149 0.5 2.20565e-18 0.196907
0 0.5 -0.156179 0.195464
0 0.5 0.156179 0.194808
0.0124865 0.5 0.156179 0.194808
0.0124865 0.5 -0.156179 0.195464
0.151149 0.5 0.075 0.196418
0.151149 0.5 -0.075 0.196742
0.075776 0.5 0.1875 0.19422
0.075776 0.5 -0.1875 0.195004
0.151149 0.5 0.15 0.195281
0.151149 0.5 -0.15 0.195923
0 0.5 -0.218821 0.194267
0 0.5 0.218821 0.193355
0.0124865 0.5 0.218821 0.193355
0.0124865 0.5 -0.218821 0.194267
0.219992 0.5 0.0375 0.197179
0.219992 0.5 -0.0375 0.197346
0 0.5 0.225 0.193184
0 0.5 -0.225 0.19412
0 0.5 -0.231179 0.193978
0 0.5 0.231179 0.193016
0.0124865 0.5 0.231179 0.193016
0.0124865 0.5 -0.231179 0.193978
0.219993 0.5 0.1125 0.196365
0.219993 0.5 -0.1125 0.196858
0.151149 0.5 0.225 0.193511
0.151149 0.5 -0.225 0.194466
0.075776 0.5 0.2625 0.192169
0.075776 0.5 -0.2625 0.193258
0.288069 0.5 3.34766e-17 0.200636
0.219992 0.5 0.1875 0.194878
0.219992 0.5 -0.1875 0.195691
0 0.5 0.293821 0.191064
0 0.5 -0.293821 0.192274
0.0124865 0.5 -0.293821 0.192274
0.0124865 0.5 0.293821 0.191064
0.288069 0.5 0.075 0.200113
0.288069 0.5 -0.075 0.200459
0 0.5 0.3 0.190845
0 0.5 -0.3 0.192079
0 0.5 0.306179 0.190629
0 0.5 -0.306179 0.191888
0.0124865 0.5 0.306179 0.190629
0.0124865 0.5 -0.306179 0.191888
0.288069 0.5 0.15 0.198888
0.288069 0.5 -0.15 0.199572
0.151149 0.5 0.3 0.191138
0.151149 0.5 -0.3 0.192397
0.219992 0.5 0.2625 0.19277
0.219992 0.5 -0.2625 0.193901
0.075776 0.5 0.3375 0.189542
0.075776 0.5 -0.3375 0.190922
0.350249 0.5 0.0375 0.203729
0.350249 0.5 -0.0375 0.203909
0.288069 0.5 0.225 0.196979
0.288069 0.5 -0.225 0.197994
0.350249 0.5 0.1125 0.202802
0.350249 0.5 -0.1125 0.203341
0 0.5 0.368821 0.18821
0 0.5 -0.368821 0.189707
0.0124865 0.5 0.368821 0.18821
0.0124865 0.5 -0.368821 0.189707
0 0.5 0.375 0.187946
0 0.5 -0.375 0.189466
0 0.5 -0.381179 0.189229
0 0.5 0.381179 0.187686
0.0124865 0.5 0.381179 0.187686
0.0124865 0.5 -0.381179 0.189229
0.350249 0.5 0.1875 0.201138
0.350249 0.5 -0.1875 0.202025
0.219992 0.5 0.3375 0.19007
0.219992 0.5 -0.3375 0.191503
0.151149 0.5 0.375 0.1882
0.151149 0.5 -0.375 0.189749
0.411736 0.5 1.70099e-17 0.208304
0.288069 0.5 0.3 0.194424
0.288069 0.5 -0.3 0.195759
0.411736 0.5 0.075 0.207715
0.411736 0.5 -0.075 0.208092
0.075776 0.5 0.4125 0.186372
0.075776 0.5 -0.4125 0.188031
0.350249 0.5 -0.2625 0.199997
0.350249 0.5 0.2625 0.198773
0.411736 0.5 0.15 0.206331
0.411736 0.5 -0.15 0.207079
0 0.5 -0.443821 0.186602
0 0.5 0.443821 0.184833
0.0124865 0.5 0.443821 0.184833
0.0124865 0.5 -0.443821 0.186602
0 0.5 0.45 0.184528
0 0.5 -0.45 0.186319
0 0.5 -0.456179 0.186039
0 0.5 0.456179 0.184227
0.0124865 0.5 0.456179 0.184227
0.0124865 0.5 -0.456179 0.186039
0.219992 0.5 -0.4125 0.188539
0.219993 0.5 0.4125 0.18682
0.411736 0.5 0.225 0.204179
0.411736 0.5 -0.225 0.205286
0.467897 0.5 0.0375 0.212446
0.467897 0.5 -0.0375 0.212644
0.288069 0.5 0.375 0.191264
0.288069 0.5 -0.375 0.192904
0.151149 0.5 -0.45 0.186562
0.151149 0.5 0.45 0.184739
0.467897 0.5 0.1125 0.211397
0.467897 0.5 -0.1125 0.211988
0.350249 0.5 0.3375 0.195744
0.350249 0.5 -0.3375 0.197292
0.075776 0.5 -0.4875 0.184628
0.075776 0.5 0.4875 0.182705
0.467897 0.5 0.1875 0.209515
0.467897 0.5 -0.1875 0.210486
0.411736 0.5 0.3 0.201298
0.411736 0.5 -0.3 0.20275
0 0.5 -0.518821 0.183004
0 0.5 0.518821 0.180979
0.0124865 0.5 0.518821 0.180979
0.0124865 0.5 -0.518821 0.183004
0.523432 0.5 3.75966e-17 0.217855
0 0.5 0.525 0.180638
0 0.5 -0.525 0.182683
0.523432 0.5 0.075 0.217189
0.523432 0.5 -0.075 0.217606
0 0.5 -0.531179 0.182365
0 0.5 0.531179 0.180299
0.0124865 0.5 0.531179 0.180299
0.0124865 0.5 -0.531179 0.182365
0.288069 0.5 0.45 0.187548
0.288069 0.5 -0.45 0.189475
0.219992 0.5 -0.4875 0.185053
0.219992 0.5 0.4875 0.183066
0.467897 0.5 -0.2625 0.208173
0.467897 0.5 0.2625 0.206834
0.350249 0.5 0.4125 0.192104
0.350249 0.5 -0.4125 0.193958
0.523432 0.5 0.15 0.215617
0.523432 0.5 -0.15 0.216445
0.151149 0.5 0.525 0.180801
0.151149 0.5 -0.525 0.182881
0.411736 0.5 0.375 0.197738
0.411736 0.5 -0.375 0.199517
0.075776 0.5 0.5625 0.17859
0.075776 0.5 -0.5625 0.180758
0.523432 0.5 0.225 0.21317
0.523432 0.5 -0.225 0.214394
0.574156 0.5 0.0375 0.222784
0.574157 0.5 -0.0375 0.223005
0.467897 0.5 0.3375 0.203404
0.467897 0.5 -0.3375 0.205093
0.574156 0.5 0.1125 0.221589
0.574156 0.5 -0.1125 0.222248
0 0.5 -0.593821 0.178963
0 0.5 0.593821 0.176699
0.0124865 0.5 0.593821 0.176699
0.0124865 0.5 -0.593821 0.178963
0.288069 0.5 0.525 0.18333
0.288069 0.5 -0.525 0.185524
0 0.5 0.6 0.176325
0 0.5 -0.6 0.178608
0.350249 0.5 0.4875 0.187911
0.350249 0.5 -0.4875 0.19005
0.523432 0.5 -0.3 0.211496
0.523432 0.5 0.3 0.209897
0.219992 0.5 0.5625 0.178856
0.219992 0.5 -0.5625 0.181093
0.574156 0.5 0.1875 0.219439
0.574157 0.5 -0.1875 0.220525
0 0.5 -0.606179 0.178255
0 0.5 0.606179 0.175954
0.0124865 0.5 0.606179 0.175954
0.0124865 0.5 -0.606179 0.178255
0.411736 0.5 0.45 0.193559
0.411736 0.5 -0.45 0.195643
0.151149 0.5 0.6 0.176438
0.151149 0.5 -0.6 0.178757
0.467897 0.5 0.4125 0.199287
0.467897 0.5 -0.4125 0.201303
0.624316 0.5 2.64545e-17 0.228886
0.624316 0.5 0.075 0.228126
0.624316 0.5 -0.075 0.228595
0.574156 0.5 -0.2625 0.217874
0.574157 0.5 0.2625 0.216383
0.075776 0.5 0.6375 0.17408
0.075776 0.5 -0.6375 0.176477
0.624316 0.5 0.15 0.226328
0.624316 0.5 -0.15 0.227257
0.523432 0.5 0.375 0.205855
0.523432 0.5 -0.375 0.207808
0.350249 0.5 -0.5625 0.185628
0.350249 0.5 0.5625 0.183226
0.624316 0.5 0.225 0.22353
0.624316 0.5 -0.225 0.224902
0.288069 0.5 0.6 0.17867
0.288069 0.5 -0.6 0.181109
0.574157 0.5 0.3375 0.212479
0.574157 0.5 -0.3375 0.214348
0.411736 0.5 0.525 0.188828
0.411736 0.5 -0.525 0.191195
0 0.5 -0.668821 0.174531
0 0.5 0.668821 0.172047
0.0124865 0.5 0.668821 0.172047
0.0124865 0.5 -0.668821 0.174531
0.67013 0.5 0.0375 0.234469
0.67013 0.5 -0.0375 0.234719
0.219993 0.5 -0.6375 0.176712
0.219992 0.5 0.6375 0.174246
0 0.5 0.675 0.171645
0 0.5 -0.675 0.174146
0.467897 0.5 -0.4875 0.19687
0.467897 0.5 0.4875 0.194551
0.67013 0.5 0.1125 0.2331
0.67013 0.5 -0.1125 0.233843
0 0.5 -0.681179 0.173764
0 0.5 0.681179 0.171245
0.0124865 0.5 0.681179 0.171245
0.0124865 0.5 -0.681179 0.173764
0.523432 0.5 0.45 0.201119
0.523432 0.5 -0.45 0.2034
0.151149 0.5 0.675 0.171705
0.151149 0.5 -0.675 0.174242
0.624316 0.5 0.3 0.219792
0.624316 0.5 -0.3 0.221579
0.67013 0.5 0.1875 0.230637
0.67013 0.5 -0.1875 0.231858
0.574156 0.5 0.4125 0.207794
0.574156 0.5 -0.4125 0.21002
0.715434 0.5 3.51282e-17 0.241045
0.075776 0.5 0.7125 0.169228
0.075776 0.5 -0.7125 0.171834
0.715434 0.5 0.075 0.240176
0.715434 0.5 -0.075 0.240707
0.67013 0.5 0.2625 0.227133
0.67013 0.5 -0.2625 0.228812
0.350249 0.5 -0.6375 0.180759
0.350249 0.5 0.6375 0.178118
0.411736 0.5 0.6 0.183617
0.411736 0.5 -0.6 0.186241
0.624316 0.5 0.375 0.215185
0.624316 0.5 -0.375 0.217358
0.715434 0.5 0.15 0.238117
0.715434 0.5 -0.15 0.239166
0.467897 0.5 0.5625 0.189274
0.467897 0.5 -0.5625 0.19187
0.288069 0.5 0.675 0.173627
0.288069 0.5 -0.675 0.176289
0.523432 0.5 0.525 0.19577
0.523432 0.5 -0.525 0.198351
0 0.5 -0.743821 0.169761
0 0.5 0.743821 0.167076
0.0124865 0.5 -0.743821 0.169761
0.0124865 0.5 0.743821 0.167076
0.219992 0.5 0.7125 0.169289
0.219992 0.5 -0.7125 0.171965
0.715434 0.5 0.225 0.234913
0.715434 0.5 -0.225 0.23646
0 0.5 0.75 0.16665
0 0.5 -0.75 0.169351
0.67013 0.5 0.3375 0.222668
0.67013 0.5 -0.3375 0.224768
0.574157 0.5 0.4875 0.202419
0.574157 0.5 -0.4875 0.20497
0 0.5 -0.756179 0.168944
0 0.5 0.756179 0.166227
0.0124865 0.5 0.756179 0.166227
0.0124865 0.5 -0.756179 0.168944
0.756813 0.5 0.0375 0.247076
0.756813 0.5 -0.0375 0.24736
0.151149 0.5 0.75 0.166655
0.151149 0.5 -0.75 0.169392
0.756813 0.5 0.1125 0.245507
0.756813 0.5 -0.1125 0.24635
0.624316 0.5 -0.45 0.212323
0.624316 0.5 0.45 0.209796
0.715434 0.5 0.3 0.230636
0.715434 0.5 -0.3 0.232649
0.756813 0.5 0.1875 0.242687
0.756813 0.5 -0.1875 0.24407
0.67013 0.5 -0.4125 0.219809
0.67013 0.5 0.4125 0.217326
0.411736 0.5 0.675 0.178002
0.411736 0.5 -0.675 0.180857
0.467897 0.5 0.6375 0.183537
0.467897 0.5 -0.6375 0.186382
0.075776 0.5 0.7875 0.164091
0.075776 0.5 -0.7875 0.166887
0.350249 0.5 0.7125 0.172653
0.350249 0.5 -0.7125 0.175509
0.523432 0.5 0.6 0.189898
0.523432 0.5 -0.6 0.192748
0.797732 0.5 3.20924e-17 0.253915
0.756813 0.5 0.2625 0.238677
0.756814 0.5 -0.2625 0.240571
0.797732 0.5 0.075 0.252922
0.797732 0.5 -0.075 0.253526
0.288069 0.5 0.75 0.168264
0.288069 0.5 -0.75 0.171128
0.574156 0.5 -0.5625 0.199292
0.574156 0.5 0.5625 0.196449
0.715434 0.5 0.375 0.225377
0.715434 0.5 -0.375 0.227816
0.797732 0.5 0.15 0.25057
0.797732 0.5 -0.15 0.251763
0.624316 0.5 0.525 0.203727
0.624316 0.5 -0.525 0.206574
0.219992 0.5 0.7875 0.164043
0.219992 0.5 -0.7875 0.166909
0 0.5 -0.818821 0.16471
0 0.5 0.818821 0.161842
0.0124865 0.5 -0.818821 0.16471
0.0124865 0.5 0.818821 0.161842
0 0.5 0.825 0.161397
0 0.5 -0.825 0.164279
0.756813 0.5 -0.3375 0.23594
0.756813 0.5 0.3375 0.233575
0.67013 0.5 0.4875 0.211207
0.67013 0.5 -0.4875 0.214042
0.797732 0.5 0.225 0.246912
0.797732 0.5 -0.225 0.248666
0 0.5 -0.831179 0.163851
0 0.5 0.831179 0.160955
0.0124865 0.5 0.831179 0.160955
0.0124865 0.5 -0.831179 0.163851
0.835106 0.5 -0.0375 0.260516
0.835106 0.5 0.0375 0.260191
0.151149 0.5 0.825 0.161346
0.151149 0.5 -0.825 0.164263
0.835106 0.5 0.1125 0.2584
0.835106 0.5 -0.1125 0.259363
0.715434 0.5 0.45 0.21924
0.715434 0.5 -0.45 0.222064
0.797732 0.5 0.3 0.242033
0.797732 0.5 -0.3 0.244312
0.467897 0.5 0.7125 0.177423
0.467897 0.5 -0.7125 0.180489
0.523432 0.5 0.675 0.183593
0.523432 0.5 -0.675 0.186682
0.411736 0.5 0.75 0.172057
0.411736 0.5 -0.75 0.175118
0.835106 0.5 0.1875 0.255185
0.835106 0.5 -0.1875 0.256762
0.574156 0.5 0.6375 0.189982
0.574156 0.5 -0.6375 0.193084
0.350249 0.5 -0.7875 0.169947
0.350249 0.5 0.7875 0.166899
0.756813 0.5 -0.4125 0.230273
0.756814 0.5 0.4125 0.227481
0.075776 0.5 -0.8625 0.161689
0.075776 0.5 0.8625 0.158722
0.624316 0.5 0.6 0.197088
0.624316 0.5 -0.6 0.200217
0.872064 0.5 4.32235e-17 0.26721
0.288069 0.5 0.825 0.162643
0.288069 0.5 -0.825 0.165686
0.67013 0.5 0.5625 0.204434
0.67013 0.5 -0.5625 0.207578
0.872064 0.5 0.075 0.266079
0.872064 0.5 -0.075 0.266768
0.835106 0.5 0.2625 0.25062
0.835106 0.5 -0.2625 0.252772
0.797732 0.5 0.375 0.236048
0.797732 0.5 -0.375 0.238801
0.872064 0.5 0.15 0.263405
0.872064 0.5 -0.15 0.264764
0.715434 0.5 0.525 0.212351
0.715434 0.5 -0.525 0.215516
0.219992 0.5 0.8625 0.158565
0.219993 0.5 -0.8625 0.1616
0 0.5 -0.893821 0.159429
0 0.5 0.893821 0.156398
0.0124865 0.5 0.893821 0.156398
0.0124865 0.5 -0.893821 0.159429
0 0.5 0.9 0.155938
0 0.5 -0.9 0.158981
0.756813 0.5 0.4875 0.220523
0.756813 0.5 -0.4875 0.223694
0.872064 0.5 0.225 0.259252
0.872064 0.5 -0.225 0.261244
0.835106 0.5 0.3375 0.244808
0.835106 0.5 -0.3375 0.247498
0 0.5 0.906179 0.155481
0 0.5 -0.906179 0.158537
0.0124865 0.5 0.906179 0.155481
0.0124865 0.5 -0.906179 0.158537
0.90582 0.5 -0.0375 0.274017
0.905821 0.5 0.0375 0.273647
0.151149 0.5 0.9 0.155831
0.90582 0.5 0.1125 0.271615
0.90582 0.5 -0.1125 0.27271
0.151149 0.5 -0.901373 0.158723
0.523432 0.5 0.75 0.176948
0.523432 0.5 -0.75 0.180244
0.574157 0.5 0.7125 0.18312
0.574156 0.5 -0.7125 0.186447
0.797732 0.5 0.45 0.229086
0.797732 0.5 -0.45 0.232255
0.467897 0.5 0.7875 0.171015
0.467897 0.5 -0.7875 0.174275
0.624316 0.5 0.675 0.189989
0.624316 0.5 -0.675 0.193363
0.411736 0.5 0.825 0.165858
0.411736 0.5 -0.825 0.169099
0.872064 0.5 0.3 0.253718
0.872064 0.5 -0.3 0.256298
0.67013 0.5 0.6375 0.197128
0.67013 0.5 -0.6375 0.200539
0.90582 0.5 0.1875 0.26797
0.90582 0.5 -0.1875 0.269761
0.350249 0.5 -0.8625 0.16414
0.350249 0.5 0.8625 0.160924
0.835106 0.5 0.4125 0.237906
0.835106 0.5 -0.4125 0.241055
0.715434 0.5 0.6 0.204843
0.715434 0.5 -0.6 0.208302
0.939201 0.5 4.40909e-17 0.280527
0.075776 0.5 -0.9375 0.156292
0.075776 0.5 0.9375 0.153172
0.939201 0.5 0.075 0.279247
0.939201 0.5 -0.075 0.280034
0.756814 0.5 0.5625 0.212855
0.756814 0.5 -0.5625 0.21635
0.905821 0.5 0.2625 0.262803
0.905821 0.5 -0.2625 0.265239
0.288069 0.5 0.9 0.156824
0.288069 0.5 -0.901373 0.159841
0.872064 0.5 0.375 0.246941
0.872064 0.5 -0.375 0.250046
0.939201 0.5 -0.15 0.27778
0.939201 0.5 0.15 0.27623
0.797732 0.5 0.525 0.221293
0.797732 0.5 -0.525 0.224826
0.219993 0.5 -0.9375 0.156092
0.219992 0.5 0.9375 0.152908
0.939201 0.5 0.225 0.271554
0.939201 0.5 -0.225 0.273821
0.90582 0.5 0.3375 0.256234
0.90582 0.5 -0.3375 0.259265
0.835106 0.5 -0.4875 0.233595
0.835107 0.5 0.4875 0.230048
0 0.5 0.968821 0.150795
0 0.5 -0.968821 0.15397
0.0124865 0.5 0.968821 0.150795
0.0124865 0.5 -0.968821 0.15397
0.969689 0.5 0.0375 0.28681
0.969689 0.5 -0.0375 0.287234
0.574156 0.5 0.7875 0.175963
0.574156 0.5 -0.7875 0.179483
0 0.5 0.975 0.150325
0 0.5 -0.975 0.15351
0.624316 0.5 0.75 0.182542
0.624316 0.5 -0.75 0.186124
0.969689 0.5 0.1125 0.284524
0.96969 0.5 -0.1125 0.285779
0.523432 0.5 0.825 0.170052
0.523432 0.5 -0.825 0.173527
0.67013 0.5 0.7125 0.18941
0.67013 0.5 -0.7125 0.193048
0 0.5 -0.981179 0.153053
0 0.5 0.981179 0.149857
0.467897 0.5 0.8625 0.164392
0.467897 0.5 -0.8625 0.16782
0.0124865 0.5 0.981179 0.149857
0.0124865 0.5 -0.981179 0.153053
0.872064 0.5 0.45 0.239082
0.872064 0.5 -0.45 0.242637
0.715434 0.5 0.675 0.196849
0.715434 0.5 -0.675 0.200556
0.939201 0.5 0.3 0.265331
0.939201 0.5 -0.3 0.268254
0.151149 0.5 0.975 0.150163
0.151149 0.5 -0.975 0.153381
0.969689 0.5 0.1875 0.280433
0.969689 0.5 -0.1875 0.282483
0.756814 0.5 0.6375 0.204614
0.756814 0.5 -0.6375 0.208381
0.411736 0.5 0.9 0.159475
0.411736 0.5 -0.901373 0.162673
0.90582 0.5 0.4125 0.24844
0.90582 0.5 -0.4125 0.251975
0.797732 0.5 0.6 0.212833
0.797732 0.5 -0.6 0.216671
1.00005 0.5 1.48897e-17 0.293477
0.350249 0.5 -0.9375 0.158151
0.350249 0.5 0.9375 0.15479
1.00005 0.5 0.0749309 0.292042
1.00005 0.5 -0.0749309 0.292925
0.969689 0.5 0.2625 0.274646
0.969689 0.5 -0.2625 0.277427
0.835106 0.5 0.5625 0.221399
0.835106 0.5 -0.5625 0.225299
1.00005 0.5 0.149862 0.288659
1.00005 0.5 -0.149862 0.290396
0.939201 0.5 0.375 0.25772
0.939201 0.5 -0.375 0.261219
0.075776 0.5 1.0125 0.147494
0.075776 0.5 -1.0125 0.150746
0.288069 0.5 0.975 0.150867
0.288069 0.5 -0.975 0.154205
0.872064 0.5 0.525 0.230312
0.872064 0.5 -0.525 0.234256
1.00005 0.5 0.224793 0.283418
1.00005 0.5 -0.224793 0.285956
0.96969 0.5 0.3375 0.267303
0.96969 0.5 -0.3375 0.270732
1.0271 0.5 0.0368226 0.299811
1.0271 0.5 -0.0368226 0.30028
0.90582 0.5 0.4875 0.239593
0.90582 0.5 -0.4875 0.243564
1.0271 0.5 0.110468 0.297294
1.0271 0.5 -0.110468 0.298684
0.67013 0.5 -0.7875 0.185228
0.67013 0.5 0.7875 0.181401
0.624316 0.5 0.825 0.174854
0.624316 0.5 -0.825 0.178611
0.219992 0.5 -1.0125 0.15044
0.219993 0.5 1.0125 0.147127
0.574156 0.5 0.8625 0.168607
0.574156 0.5 -0.8625 0.172289
0.715434 0.5 0.75 0.188503
0.715434 0.5 -0.75 0.192416
0.756813 0.5 -0.7125 0.19994
0.756814 0.5 0.7125 0.195946
0.523432 0.5 0.9 0.162989
0.939201 0.5 0.45 0.248906
0.939201 0.5 -0.45 0.252906
1.04168 0.5 0 0.303927
0.523432 0.5 -0.901373 0.166399
1.0271 0.5 0.184113 0.292798
1.0271 0.5 -0.184113 0.295065
0 0.5 1.04382 0.145084
0 0.5 -1.04382 0.148384
0.0124865 0.5 1.04382 0.145084
0.0124865 0.5 -1.04382 0.148384
1.00005 0.5 0.299723 0.276455
1.00005 0.5 -0.299723 0.279716
1.04168 0.5 0.0729162 0.302416
1.04168 0.5 -0.0729162 0.303368
0.797732 0.5 0.675 0.203864
0.797732 0.5 -0.675 0.20795
0.467897 0.5 -0.9375 0.161201
0.467897 0.5 0.9375 0.15763
0 0.5 1.05 0.144608
0 0.5 -1.05 0.147917
0.835106 0.5 0.6375 0.212155
0.835106 0.5 -0.6375 0.216328
1.04168 0.5 0.145832 0.298881
1.04168 0.5 -0.145832 0.300752
0.969689 0.5 -0.4125 0.262579
0.96969 0.5 0.4125 0.258592
0 0.5 1.05618 0.144134
0 0.5 -1.05618 0.147452
0.0124865 0.5 1.05618 0.144134
0.0124865 0.5 -1.05618 0.147452
1.05695 0.5 -0.0360764 0.307969
1.05695 0.5 0.0360764 0.307488
0.411736 0.5 0.975 0.152976
0.411736 0.5 -0.975 0.156507
0.872064 0.5 0.6 0.220828
0.872064 0.5 -0.6 0.225088
1.0271 0.5 0.257759 0.286439
1.0271 0.5 -0.257759 0.289516
0.151149 0.5 -1.05 0.147736
0.151149 0.5 1.05 0.144396
1.05695 0.5 0.108229 0.304941
1.05695 0.5 -0.108229 0.306365
1.04168 0.5 0.218749 0.29341
1.04168 0.5 -0.218749 0.296146
0.90582 0.5 0.5625 0.229902
0.90582 0.5 -0.5625 0.234247
1.00005 0.5 0.374654 0.267951
1.00005 0.5 -0.374654 0.271847
0.350249 0.5 1.0125 0.14856
0.350249 0.5 -1.0125 0.152045
1.05695 0.5 0.180382 0.300394
1.05695 0.5 -0.180382 0.302719
0.939201 0.5 0.525 0.23911
0.939201 0.5 -0.525 0.243535
1.0271 0.5 -0.331404 0.282176
1.0271 0.5 0.331404 0.278381
1.08112 0.5 3.20924e-17 0.31429
1.04168 0.5 0.291665 0.286144
1.04168 0.5 -0.291665 0.289661
1.08112 0.5 0.0709442 0.312741
1.08112 0.5 -0.0709442 0.313745
0.96969 0.5 0.4875 0.248718
0.96969 0.5 -0.4875 0.253207
1.05695 0.5 0.252535 0.29396
1.05695 0.5 -0.252535 0.297119
0.288069 0.5 1.05 0.144828
0.288069 0.5 -1.05 0.148283
0.075776 0.5 -1.0875 0.145104
0.075776 0.5 1.0875 0.141738
1.08112 0.5 0.141888 0.30914
1.08112 0.5 -0.141888 0.311117
0.715434 0.5 0.825 0.179933
0.715434 0.5 -0.825 0.184012
0.756814 0.5 0.7875 0.186999
0.756814 0.5 -0.7875 0.191175
0.67013 0.5 0.8625 0.173214
0.67013 0.5 -0.8625 0.177195
0.797732 0.5 0.75 0.194544
0.797732 0.5 -0.75 0.19883
0.624316 0.5 0.9 0.167026
1.00005 0.5 0.449585 0.258127
1.00005 0.5 -0.449585 0.262567
0.624316 0.5 -0.901373 0.170683
0.835106 0.5 0.7125 0.202474
0.835106 0.5 -0.7125 0.206868
0.574156 0.5 -0.9375 0.164957
0.574156 0.5 0.9375 0.161138
1.10076 0.5 0.0349809 0.319422
1.10076 0.5 -0.0349809 0.319952
1.08112 0.5 0.212832 0.303577
1.08112 0.5 -0.212832 0.306468
0.872064 0.5 0.675 0.210814
0.872064 0.5 -0.675 0.215317
1.04168 0.5 -0.364581 0.281476
1.04168 0.5 0.364581 0.27727
1.0271 0.5 -0.405049 0.273262
1.0271 0.5 0.405049 0.268839
1.05695 0.5 0.324688 0.285803
1.05695 0.5 -0.324688 0.289696
1.10076 0.5 -0.104943 0.318365
1.10076 0.5 0.104943 0.316796
0.523432 0.5 0.975 0.155839
0.523432 0.5 -0.975 0.159595
0.90582 0.5 0.6375 0.21959
0.90582 0.5 -0.6375 0.224195
0.219992 0.5 1.0875 0.14128
0.219992 0.5 -1.0875 0.144702
1.11376 0.5 1.15648e-18 0.323201
0.939201 0.5 0.6 0.228574
0.939201 0.5 -0.6 0.233317
1.10076 0.5 0.174905 0.312139
1.10076 0.5 -0.174905 0.314698
0.467897 0.5 -1.0125 0.154489
0.467897 0.5 1.0125 0.150797
1.11376 0.5 0.0693118 0.321602
1.11376 0.5 -0.0693118 0.322677
1.08112 0.5 0.283777 0.296186
1.08112 0.5 -0.285603 0.299726
0 0.5 -1.11882 0.142723
0 0.5 1.11882 0.139316
0.0124865 0.5 1.11882 0.139316
0.0124865 0.5 -1.11882 0.142723
0.969689 0.5 0.5625 0.237978
0.969689 0.5 -0.5625 0.242856
1.11376 0.5 0.138624 0.317921
1.11376 0.5 -0.138624 0.320036
0 0.5 1.125 0.138837
0 0.5 -1.125 0.142252
1.10076 0.5 0.244866 0.305558
1.10076 0.5 -0.244866 0.309035
0.411736 0.5 -1.05 0.150068
0.411736 0.5 1.05 0.146425
1.05695 0.5 -0.396841 0.280207
1.05695 0.5 0.396841 0.27613
1.00005 0.5 0.524516 0.247247
1.00005 0.5 -0.525427 0.252063
1.04168 0.5 -0.437497 0.271805
1.04168 0.5 0.437497 0.267024
0 0.5 1.13118 0.13836
0 0.5 -1.13118 0.141783
0.0124865 0.5 -1.13118 0.141783
0.0124865 0.5 1.13118 0.13836
1.11376 0.5 0.207935 0.312245
1.0271 0.5 -0.478694 0.262998
1.0271 0.5 0.478694 0.258071
1.11376 0.5 -0.213207 0.315338
1.07791 0.5 -0.354722 0.290994
0.151149 0.5 1.125 0.138577
0.151149 0.5 -1.125 0.14202
1.08112 0.5 0.354722 0.287148
1.13882 0.5 0.0340295 0.329833
1.13882 0.5 -0.0340295 0.330397
0.350249 0.5 1.0875 0.142289
0.350249 0.5 -1.0875 0.14588
1.13882 0.5 0.102088 0.327125
1.13882 0.5 -0.102088 0.328795
1.10076 0.5 0.314829 0.297211
1.10076 0.5 -0.314829 0.301496
0.756813 0.5 -0.8625 0.182222
0.756814 0.5 0.8625 0.177905
0.797732 0.5 0.825 0.185028
0.797732 0.5 -0.825 0.189465
1.11376 0.5 -0.277247 0.309206
1.11376 0.5 0.277247 0.304707
0.835106 0.5 0.7875 0.192534
0.835106 0.5 -0.7875 0.197095
0.715434 0.5 0.9 0.171258
0.872064 0.5 0.75 0.200457
0.872064 0.5 -0.75 0.20515
0.715434 0.5 -0.901373 0.175196
1.13882 0.5 -0.170147 0.325062
1.13882 0.5 0.170147 0.322338
0.67013 0.5 -0.9375 0.169057
0.67013 0.5 0.9375 0.164953
0.90582 0.5 0.7125 0.208813
0.90582 0.5 -0.7125 0.213635
1.05695 0.5 -0.468994 0.269447
1.05695 0.5 0.468994 0.265201
0.939201 0.5 0.675 0.217499
0.939201 0.5 -0.675 0.22247
0.624316 0.5 0.975 0.159147
0.624316 0.5 -0.975 0.163164
1.04168 0.5 -0.510414 0.260897
1.04168 0.5 0.510414 0.255665
0.969689 0.5 0.6375 0.226612
0.969689 0.5 -0.6375 0.231741
0.288069 0.5 1.125 0.138754
0.288069 0.5 -1.125 0.142308
1.16179 0.5 1.04083e-17 0.337023
1.08112 0.5 -0.425666 0.281737
1.08112 0.5 0.425666 0.276694
1.13882 0.5 -0.238206 0.318759
1.13882 0.5 0.238206 0.315576
1.16179 0.5 0.0669104 0.335353
1.16179 0.5 -0.0669104 0.336504
0.574156 0.5 -1.0125 0.157567
0.574156 0.5 1.0125 0.153637
0.998291 0.5 -0.599796 0.240348
0.075776 0.5 -1.1625 0.139415
0.075776 0.5 1.1625 0.13595
1.00005 0.5 0.599447 0.235576
1.10076 0.5 -0.384791 0.292283
1.10076 0.5 0.384791 0.287297
1.0271 0.5 0.55234 0.246342
1.0271 0.5 -0.55234 0.255121
1.11376 0.5 -0.346559 0.300232
1.11376 0.5 0.346559 0.295483
1.16179 0.5 0.133821 0.331538
1.16179 0.5 -0.133821 0.333671
0.523432 0.5 -1.05 0.152533
0.523432 0.5 1.05 0.148672
1.17463 0.5 0.0331343 0.340274
1.17463 0.5 -0.0331343 0.340878
1.15837 0.5 -0.200731 0.328284
1.17463 0.5 0.0994029 0.337477
1.17463 0.5 -0.0994029 0.339268
1.16179 0.5 0.200074 0.32557
1.13882 0.5 -0.306265 0.311555
1.13882 0.5 0.306265 0.306997
0.219992 0.5 1.1625 0.135398
0.219992 0.5 -1.1625 0.138915
0.467897 0.5 -1.0875 0.147752
0.467897 0.5 1.0875 0.143961
1.17463 0.5 0.165672 0.332553
1.17463 0.5 -0.165672 0.335475
1.05695 0.5 0.541147 0.253262
1.05695 0.5 -0.541147 0.258695
1.18772 0.5 -1.15648e-18 0.344485
1.11376 0.5 -0.41587 0.290191
1.11376 0.5 0.41587 0.284798
1.18772 0.5 0.0655187 0.342763
1.08112 0.5 0.49661 0.265074
1.08112 0.5 -0.49661 0.270591
1.18772 0.5 -0.0699161 0.343988
1.10076 0.5 -0.454752 0.281609
1.10076 0.5 0.454752 0.276069
1.16179 0.5 0.267642 0.317689
1.16179 0.5 -0.267642 0.322114
0 0.5 1.19382 0.133534
0 0.5 -1.19382 0.137032
0.0124865 0.5 -1.19382 0.137032
0.0124865 0.5 1.19382 0.133534
1.04168 0.5 -0.58333 0.249026
1.04168 0.5 0.58333 0.24346
1.18772 0.5 0.131228 0.338881
1.18772 0.5 -0.131228 0.341507
1.17463 0.5 0.23194 0.325601
1.17463 0.5 -0.23194 0.329573
0.411736 0.5 1.125 0.139878
0.411736 0.5 -1.125 0.143613
1.13882 0.5 0.374324 0.296794
1.13882 0.5 -0.374324 0.302098
0 0.5 1.2 0.133056
0 0.5 -1.2 0.136561
0.90582 0.5 0.7875 0.197819
0.90582 0.5 -0.7875 0.202799
0.872064 0.5 0.825 0.189943
0.872064 0.5 -0.825 0.194773
0.835106 0.5 -0.8625 0.187169
0.835106 0.5 0.8625 0.182488
1.18534 0.5 0.196842 0.332253
0.939201 0.5 0.75 0.206089
0.939201 0.5 -0.75 0.211229
0.797732 0.5 0.9 0.17545
1.0271 0.5 -0.625985 0.23951
1.0271 0.5 0.625985 0.233911
0.969689 0.5 0.7125 0.214802
0.96969 0.5 -0.7125 0.220113
0.797732 0.5 -0.901373 0.179696
1.18772 0.5 -0.196842 0.336489
0.756813 0.5 -0.9375 0.173206
0.756813 0.5 0.9375 0.168786
0.998291 0.5 -0.67477 0.228408
1.15863 0.5 0.334552 0.307533
0 0.5 1.20618 0.13258
0 0.5 -1.20618 0.136092
1.00005 0.5 0.674378 0.223365
0.0124865 0.5 -1.20618 0.136092
0.0124865 0.5 1.20618 0.13258
1.16179 0.5 -0.334552 0.313375
0.715434 0.5 0.975 0.162581
0.715434 0.5 -0.975 0.166889
0.151149 0.5 1.2 0.132745
0.151149 0.5 -1.2 0.136277
1.20942 0.5 -0.0322645 0.351414
1.20942 0.5 0.0322645 0.350773
1.18534 0.5 0.249669 0.326069
1.17463 0.5 0.298209 0.31678
1.17463 0.5 -0.298209 0.321676
1.20942 0.5 0.0967935 0.3479
1.20942 0.5 -0.0967935 0.349803
0.350249 0.5 1.1625 0.136019
0.350249 0.5 -1.1625 0.139697
0.67013 0.5 1.0125 0.156709
0.67013 0.5 -1.0125 0.160909
1.11376 0.5 -0.485183 0.278808
1.11376 0.5 0.485183 0.272905
1.18772 0.5 -0.262456 0.329544
1.10076 0.5 -0.524714 0.269755
1.10076 0.5 0.524714 0.263771
1.20942 0.5 0.161322 0.343137
1.20942 0.5 -0.161322 0.346246
1.08112 0.5 -0.567554 0.258431
1.08112 0.5 0.567554 0.252567
0.624316 0.5 1.05 0.151301
0.624316 0.5 -1.05 0.155408
1.13882 0.5 0.442383 0.285224
1.13882 0.5 -0.442383 0.291119
1.05695 0.5 -0.6133 0.246306
1.05695 0.5 0.6133 0.240604
1.15863 0.5 0.401463 0.296472
1.16179 0.5 -0.401463 0.302963
0.574156 0.5 1.0875 0.146175
0.574157 0.5 -1.0875 0.150194
1.17463 0.5 0.364477 0.306278
1.17463 0.5 -0.364477 0.311976
1.20942 0.5 0.225851 0.336023
1.20942 0.5 -0.225851 0.34025
1.23036 0.5 -1.38778e-17 0.358347
1.04168 0.5 -0.656246 0.236478
1.04168 0.5 0.656246 0.230678
1.23036 0.5 -0.0634819 0.357723
1.23036 0.5 0.0634819 0.356574
1.18772 0.5 0.32807 0.315246
1.18772 0.5 -0.32807 0.320675
0.288069 0.5 1.2 0.132684
0.288069 0.5 -1.2 0.136321
1.23036 0.5 0.126964 0.352576
1.23036 0.5 -0.126964 0.355096
0.075776 0.5 -1.2375 0.133721
0.075776 0.5 1.2375 0.130176
0.523432 0.5 1.125 0.141555
0.523432 0.5 -1.125 0.145499
1.0271 0.5 -0.69963 0.226858
1.0271 0.5 0.69963 0.221068
1.24274 0.5 -0.0314313 0.362622
1.24274 0.5 0.0314313 0.361939
1.20942 0.5 0.29038 0.326988
1.20942 0.5 -0.29038 0.332204
1.11376 0.5 -0.554494 0.266366
1.11376 0.5 0.554494 0.260091
1.23036 0.5 0.190445 0.34643
1.23036 0.5 -0.190445 0.350117
1.24274 0.5 0.0942942 0.358987
1.24274 0.5 -0.0942942 0.361017
1.13882 0.5 -0.510442 0.278902
1.13882 0.5 0.510442 0.272539
0.998291 0.5 -0.749744 0.216096
0.969689 0.5 0.7875 0.202773
0.969689 0.5 -0.7875 0.208206
1.00005 0.5 0.749309 0.210855
1.15863 0.5 0.468373 0.284136
0.939201 0.5 0.825 0.194561
0.939201 0.5 -0.825 0.199811
1.2484 0.5 -0.0653061 0.363898
0.90582 0.5 0.8625 0.186781
0.90582 0.5 -0.8625 0.191863
1.17463 0.5 -0.430746 0.300689
1.17463 0.5 0.430746 0.294355
1.10076 0.5 -0.594676 0.256998
1.10076 0.5 0.594676 0.250733
1.18772 0.5 0.393684 0.30392
1.18772 0.5 -0.393684 0.310087
1.24274 0.5 -0.157157 0.357144
1.24274 0.5 0.157157 0.353829
1.16179 0.5 -0.468373 0.291128
0.467897 0.5 -1.1625 0.141049
0.467897 0.5 1.1625 0.13718
0.872064 0.5 0.9 0.179423
1.25401 0.5 0 0.365802
0.872064 0.5 -0.901373 0.184009
1.24906 0.5 -0.125094 0.361386
0.835106 0.5 0.9375 0.172472
0.835106 0.5 -0.9375 0.177233
1.25401 0.5 0.0622994 0.363978
1.08112 0.5 -0.638498 0.24554
1.08112 0.5 0.638498 0.239449
1.23036 0.5 0.253927 0.338256
1.23036 0.5 -0.253927 0.343001
0.219992 0.5 1.2375 0.129521
0.219992 0.5 -1.2375 0.133118
1.05695 0.5 -0.685452 0.233365
1.05695 0.5 0.685452 0.227481
0.797732 0.5 0.975 0.165932
0.797732 0.5 -0.975 0.170554
1.25401 0.5 0.124599 0.359904
1.20942 0.5 0.354909 0.316219
1.20942 0.5 -0.354909 0.322287
1.24274 0.5 0.220019 0.346555
1.24274 0.5 -0.220019 0.351064
1.24906 0.5 -0.187641 0.356398
0.756813 0.5 -1.0125 0.164235
0.756813 0.5 1.0125 0.159741
1.25401 0.5 0.186898 0.353656
0.411736 0.5 1.2 0.133382
0.411736 0.5 -1.2 0.13719
0 0.5 1.26882 0.127778
0 0.5 -1.26882 0.131352
0.0124865 0.5 -1.26882 0.131352
0.0124865 0.5 1.26882 0.127778
0.715434 0.5 -1.05 0.158374
0.715434 0.5 1.05 0.153994
1.23036 0.5 0.31741 0.328218
1.23036 0.5 -0.31741 0.333886
1.04168 0.5 -0.729162 0.223555
1.04168 0.5 0.729162 0.217598
1.18772 0.5 -0.459298 0.298025
1.18772 0.5 0.459298 0.291282
1.24274 0.5 0.282882 0.337311
1.24274 0.5 -0.282882 0.342878
0 0.5 1.275 0.127304
0 0.5 -1.275 0.130884
1.27472 0.5 -0.0306319 0.373569
1.27472 0.5 0.0306319 0.372848
1.17463 0.5 -0.497015 0.288099
1.17463 0.5 0.497015 0.28127
1.15837 0.5 0.534151 0.271542
1.11376 0.5 0.62266 0.246566
1.11376 0.5 -0.623806 0.253154
1.13882 0.5 -0.578501 0.265734
1.13882 0.5 0.578501 0.258731
0.67013 0.5 1.0875 0.148564
0.67013 0.5 -1.0875 0.152832
1.27472 0.5 -0.0918959 0.371637
1.27472 0.5 0.0918959 0.369826
1.25401 0.5 -0.249197 0.350122
1.25401 0.5 0.249197 0.345349
1.16179 0.5 -0.535284 0.278165
1.20942 0.5 0.419438 0.303969
1.20942 0.5 -0.419438 0.310721
0 0.5 1.28118 0.126831
0 0.5 -1.28118 0.130417
0.0124865 0.5 1.28118 0.126831
0.0124865 0.5 -1.28118 0.130417
1.27472 0.5 0.15316 0.364564
1.27472 0.5 -0.15316 0.367736
0.151149 0.5 -1.275 0.130548
0.151149 0.5 1.275 0.126943
1.0271 0.5 -0.773275 0.211658
1.0271 0.5 0.773275 0.208064
1.10076 0.5 0.664638 0.237185
1.10076 0.5 -0.664638 0.243629
0.350249 0.5 1.2375 0.129791
0.350249 0.5 -1.2375 0.133539
0.624316 0.5 1.125 0.143553
0.624316 0.5 -1.125 0.14773
1.23036 0.5 -0.380892 0.32297
1.23036 0.5 0.380892 0.316532
1.24274 0.5 0.345745 0.326276
1.24274 0.5 -0.345745 0.332753
1.2906 0.5 0 0.378929
1.2906 0.5 -0.0604698 0.378508
1.2906 0.5 0.0604698 0.377021
1.25401 0.5 0.311497 0.335143
1.25401 0.5 -0.311497 0.341174
1.27472 0.5 -0.214423 0.361367
1.27472 0.5 0.214423 0.357145
1.08112 0.5 0.709442 0.225988
1.08112 0.5 -0.709442 0.232231
0.998291 0.5 -0.824719 0.204294
1.00005 0.5 0.824239 0.198289
1.2906 0.5 -0.12094 0.375756
1.2906 0.5 0.12094 0.372825
0.574156 0.5 -1.1625 0.142902
0.574156 0.5 1.1625 0.138816
0.969689 0.5 0.8625 0.190755
0.969689 0.5 -0.8625 0.196248
1.18772 0.5 -0.524912 0.284794
1.18772 0.5 0.524912 0.277618
1.05695 0.5 -0.757605 0.220201
1.05695 0.5 0.757605 0.21419
0.939201 0.5 0.9 0.183092
1.30091 0.5 0.0299772 0.382181
1.30091 0.5 -0.0299772 0.382942
0.939201 0.5 -0.901373 0.188037
1.20942 0.5 -0.483967 0.297764
1.20942 0.5 0.483967 0.290505
1.17463 0.5 0.563284 0.267341
1.17463 0.5 -0.563284 0.274516
1.2906 0.5 -0.181409 0.370703
1.2906 0.5 0.181409 0.36641
0.90582 0.5 0.9375 0.175835
0.90582 0.5 -0.9375 0.180979
1.30091 0.5 -0.0899316 0.381359
1.30091 0.5 0.0899316 0.379094
1.27472 0.5 0.275687 0.347707
1.27472 0.5 -0.275687 0.353592
0.288069 0.5 1.275 0.126661
0.288069 0.5 -1.275 0.130365
0.872064 0.5 0.975 0.169033
0.872064 0.5 -0.975 0.174003