# pMean  POINT_DATA 63140
# x  y  z  pMean
0 0.1 0 0.225077
0 0.1 -0.0179898 0.225123
0 0.1 0.0179898 0.225034
0.0363518 0.1 -0.0179898 0.225123
0.0363518 0.1 0.0179898 0.225034
0 0.1 -0.0570102 0.225061
0 0.1 0.0570102 0.224782
0.0363518 0.1 0.0570102 0.224782
0.0363518 0.1 -0.0570102 0.225061
0 0.1 0.075 0.224594
0 0.1 -0.075 0.224957
0.075776 0.1 -0.0375 0.225176
0.075776 0.1 0.0375 0.224989
0 0.1 0.0929898 0.224409
0 0.1 -0.0929898 0.224856
0.0363518 0.1 0.0929898 0.224409
0.0363518 0.1 -0.0929898 0.224856
0 0.1 0.13201 0.223849
0 0.1 -0.13201 0.224472
0.075776 0.1 0.1125 0.22421
0.075776 0.1 -0.1125 0.224748
0.0363518 0.1 0.13201 0.223849
0.0363518 0.1 -0.13201 0.224472
0 0.1 0.15 0.223519
0 0.1 -0.15 0.22422
0.150379 0.1 -8.67362e-19 0.217331
0.150379 0.1 0.0710023 0.217055
0 0.1 0.16799 0.223192
0 0.1 -0.16799 0.223971
0.150379 0.1 -0.075 0.217155
0.0363518 0.1 0.16799 0.223192
0.0363518 0.1 -0.16799 0.223971
0.075776 0.1 0.1875 0.222838
0.075776 0.1 -0.1875 0.223702
0 0.1 0.20701 0.222303
0 0.1 -0.20701 0.223246
0.0363518 0.1 0.20701 0.222303
0.0363518 0.1 -0.20701 0.223246
0.150379 0.1 -0.15 0.216257
0.150379 0.1 0.15 0.215579
0.219992 0.1 -0.0375 0.210018
0.219992 0.1 0.0375 0.20986
0 0.1 0.225 0.221813
0 0.1 -0.225 0.222829
0 0.1 0.24299 0.221327
0 0.1 -0.24299 0.222415
0.0363518 0.1 0.24299 0.221327
0.0363518 0.1 -0.24299 0.222415
0.219992 0.1 0.1125 0.208892
0.219993 0.1 -0.1125 0.209402
0.150379 0.1 -0.225 0.214621
0.150379 0.1 0.225 0.213633
0.075776 0.1 -0.2625 0.221967
0.075776 0.1 0.2625 0.220799
0 0.1 -0.28201 0.221337
0 0.1 0.28201 0.220093
0.0363518 0.1 -0.28201 0.221337
0.0363518 0.1 0.28201 0.220093
0.287374 0.1 0 0.213351
0.219992 0.1 -0.1875 0.207913
0.219993 0.1 0.1875 0.207113
0.287374 0.1 0.0710023 0.212803
0.287374 0.1 -0.075 0.213136
0 0.1 0.3 0.219445
0 0.1 -0.3 0.22076
0 0.1 0.31799 0.218799
0 0.1 -0.31799 0.220185
0.0363518 0.1 0.31799 0.218799
0.0363518 0.1 -0.31799 0.220185
0.287374 0.1 0.15 0.211413
0.287374 0.1 -0.15 0.212112
0.150379 0.1 -0.3 0.212298
0.150379 0.1 0.3 0.210996
0.219993 0.1 -0.2625 0.205663
0.219993 0.1 0.2625 0.204539
0.075776 0.1 0.3375 0.2181
0.075776 0.1 -0.3375 0.219562
0.350249 0.1 0.0375 0.21652
0.350249 0.1 -0.0375 0.216713
0 0.1 -0.35701 0.218771
0 0.1 0.35701 0.217234
0.0363518 0.1 0.35701 0.217234
0.0363518 0.1 -0.35701 0.218771
0.287374 0.1 0.225 0.209255
0.287374 0.1 -0.225 0.210289
0.350249 0.1 0.1125 0.215557
0.350249 0.1 -0.1125 0.216115
0 0.1 0.375 0.216439
0 0.1 -0.375 0.218046
0 0.1 -0.39299 0.217321
0 0.1 0.39299 0.215645
0.0363518 0.1 -0.39299 0.217321
0.0363518 0.1 0.39299 0.215645
0.350249 0.1 -0.1875 0.21472
0.350249 0.1 0.1875 0.213795
0.219992 0.1 0.3375 0.201328
0.219993 0.1 -0.3375 0.202781
0.150379 0.1 0.375 0.207742
0.150379 0.1 -0.375 0.209349
0.411108 0.1 0 0.222184
0.287374 0.1 0.3 0.20637
0.287374 0.1 -0.3 0.207738
0.411108 0.1 0.0710023 0.221541
0.411108 0.1 -0.075 0.221937
0.075776 0.1 0.4125 0.214787
0.075776 0.1 -0.4125 0.216538
0 0.1 0.43201 0.213774
0 0.1 -0.43201 0.215594
0.0363518 0.1 0.43201 0.213774
0.0363518 0.1 -0.43201 0.215594
0.411108 0.1 -0.15 0.220811
0.411108 0.1 0.15 0.220045
0.350249 0.1 -0.2625 0.212555
0.350249 0.1 0.2625 0.211276
0 0.1 0.45 0.212845
0 0.1 -0.45 0.214729
0.219992 0.1 -0.4125 0.199318
0.219992 0.1 0.4125 0.197558
0 0.1 0.46799 0.211916
0 0.1 -0.46799 0.213864
0.411108 0.1 0.225 0.217689
0.411108 0.1 -0.225 0.21883
0.467897 0.1 -0.0375 0.227622
0.467897 0.1 0.0375 0.227426
0.0363518 0.1 0.46799 0.211916
0.0363518 0.1 -0.46799 0.213864
0.287374 0.1 0.375 0.202832
0.287374 0.1 -0.375 0.204519
0.150379 0.1 0.45 0.203929
0.150379 0.1 -0.45 0.205825
0.467897 0.1 0.1125 0.226252
0.467897 0.1 -0.1125 0.226846
0.350249 0.1 0.3375 0.208038
0.350249 0.1 -0.3375 0.209646
0.075776 0.1 -0.4875 0.212928
0.075776 0.1 0.4875 0.210912
0.467897 0.1 0.1875 0.224137
0.467897 0.1 -0.1875 0.225121
0 0.1 0.50701 0.209764
0 0.1 -0.50701 0.211846
0.0363518 0.1 -0.50701 0.211846
0.0363518 0.1 0.50701 0.209764
0.411108 0.1 0.3 0.214532
0.411108 0.1 -0.3 0.216033
0.522865 0.1 -9.1073e-18 0.234157
0 0.1 0.525 0.208711
0 0.1 -0.525 0.210853
0.522865 0.1 0.0710023 0.233408
0.522865 0.1 -0.075 0.233845
0.287374 0.1 0.45 0.198698
0.287374 0.1 -0.45 0.200686
0.219992 0.1 -0.4875 0.195336
0.219992 0.1 0.4875 0.193284
0.467897 0.1 0.2625 0.221127
0.467897 0.1 -0.2625 0.222498
0.350249 0.1 -0.4125 0.20603
0.350249 0.1 0.4125 0.204111
0 0.1 0.54299 0.207658
0 0.1 -0.54299 0.20986
0.522865 0.1 -0.15 0.232499
0.522865 0.1 0.15 0.23166
0.0363518 0.1 0.54299 0.207658
0.0363518 0.1 -0.54299 0.20986
0.150379 0.1 -0.525 0.201785
0.150379 0.1 0.525 0.199622
0.411108 0.1 0.375 0.210625
0.411108 0.1 -0.375 0.212463
0.075776 0.1 0.5625 0.206518
0.075776 0.1 -0.5625 0.208786
0.522865 0.1 0.225 0.228907
0.522865 0.1 -0.225 0.230154
0.574156 0.1 0.0375 0.240425
0.574157 0.1 -0.0375 0.240648
0.467897 0.1 -0.3375 0.219027
0.467897 0.1 0.3375 0.217288
0 0.1 0.58201 0.205254
0 0.1 -0.58201 0.207582
0.0363518 0.1 0.58201 0.205254
0.0363518 0.1 -0.58201 0.207582
0.574156 0.1 0.1125 0.239088
0.574156 0.1 -0.1125 0.239755
0.287374 0.1 0.525 0.194041
0.287374 0.1 -0.525 0.196311
0 0.1 0.6 0.204093
0 0.1 -0.6 0.206476
0.350249 0.1 0.4875 0.199554
0.350249 0.1 -0.4875 0.201767
0.522865 0.1 -0.3 0.22686
0.522865 0.1 0.3 0.225226
0.219992 0.1 0.5625 0.188611
0.219992 0.1 -0.5625 0.190926
0.574156 0.1 0.1875 0.236667
0.574157 0.1 -0.1875 0.237774
0.411108 0.1 0.45 0.206026
0.411108 0.1 -0.45 0.20818
0 0.1 0.61799 0.202932
0 0.1 -0.61799 0.20537
0.150379 0.1 0.6 0.194875
0.150379 0.1 -0.6 0.197286
0.0363518 0.1 -0.61799 0.20537
0.0363518 0.1 0.61799 0.202932
0.623413 0.1 0 0.248075
0.467897 0.1 0.4125 0.21269
0.467897 0.1 -0.4125 0.21477
0.623803 0.1 0.0710023 0.247221
0.623803 0.1 -0.075 0.247709
0.574156 0.1 0.2625 0.233216
0.574157 0.1 -0.2625 0.234735
0.623803 0.1 -0.15 0.246148
0.623803 0.1 0.15 0.245213
0.075776 0.1 0.6375 0.201675
0.075776 0.1 -0.6375 0.204174
0.522865 0.1 -0.375 0.222687
0.522865 0.1 0.375 0.220688
0 0.1 0.65701 0.20031
0 0.1 -0.65701 0.202864
0.0363518 0.1 0.65701 0.20031
0.0363518 0.1 -0.65701 0.202864
0.350249 0.1 0.5625 0.194445
0.350249 0.1 -0.5625 0.196938
0.623803 0.1 0.225 0.242047
0.623803 0.1 -0.225 0.243428
0.287374 0.1 0.6 0.188933
0.287374 0.1 -0.6 0.191461
0.574156 0.1 0.3375 0.228812
0.574157 0.1 -0.3375 0.230712
0.411108 0.1 0.525 0.20081
0.411108 0.1 -0.525 0.20326
0.67013 0.1 0.0375 0.255221
0.67013 0.1 -0.0375 0.25547
0.219993 0.1 0.6375 0.183547
0.219993 0.1 -0.6375 0.186104
0 0.1 0.675 0.199055
0 0.1 -0.675 0.20166
0.467897 0.1 0.4875 0.207405
0.467897 0.1 -0.4875 0.209803
0.67013 0.1 0.1125 0.253684
0.67013 0.1 -0.1125 0.254427
0.522865 0.1 -0.45 0.217714
0.522865 0.1 0.45 0.215376
0.150379 0.1 0.675 0.189734
0.150379 0.1 -0.675 0.192373
0.623803 0.1 0.3 0.23781
0.623803 0.1 -0.3 0.239613
0 0.1 -0.69299 0.200457
0 0.1 0.69299 0.1978
0.0363518 0.1 0.69299 0.1978
0.0363518 0.1 -0.69299 0.200457
0.67013 0.1 0.1875 0.250892
0.67013 0.1 -0.1875 0.252109
0.574156 0.1 0.4125 0.223525
0.574157 0.1 -0.4125 0.225795
0.714619 0.1 4.77049e-18 0.263527
0.075776 0.1 0.7125 0.196442
0.075776 0.1 -0.7125 0.199154
0.714971 0.1 0.0710023 0.262556
0.714971 0.1 -0.075 0.263094
0.67013 0.1 0.2625 0.246905
0.67013 0.1 -0.2625 0.248584
0.411108 0.1 0.6 0.195067
0.411108 0.1 -0.6 0.197785
0.350249 0.1 0.6375 0.188882
0.350249 0.1 -0.6375 0.191621
0.623803 0.1 0.375 0.232589
0.623803 0.1 -0.375 0.234784
0.714971 0.1 0.15 0.260231
0.714971 0.1 -0.15 0.261274
0.467897 0.1 0.5625 0.201523
0.467897 0.1 -0.5625 0.204211
0 0.1 0.73201 0.194993
0 0.1 -0.73201 0.197755
0.0363518 0.1 0.73201 0.194993
0.0363518 0.1 -0.73201 0.197755
0.287374 0.1 0.675 0.18343
0.287374 0.1 -0.675 0.186191
0.522865 0.1 0.525 0.209383
0.522865 0.1 -0.525 0.212032
0.219992 0.1 0.7125 0.178131
0.219992 0.1 -0.7125 0.180916
0.714971 0.1 -0.225 0.258116
0.714971 0.1 0.225 0.256577
0 0.1 0.75 0.19366
0 0.1 -0.75 0.196468
0.67013 0.1 -0.3375 0.243931
0.67013 0.1 0.3375 0.241822
0.574157 0.1 0.4875 0.217473
0.574157 0.1 -0.4875 0.220073
0.756813 0.1 0.0375 0.271299
0.756814 0.1 -0.0375 0.271581
0.150379 0.1 -0.75 0.187105
0.150379 0.1 0.75 0.184257
0.756813 0.1 0.1125 0.269525
0.756814 0.1 -0.1125 0.270362
0 0.1 0.76799 0.192328
0 0.1 -0.76799 0.195182
0.0363518 0.1 0.76799 0.192328
0.0363518 0.1 -0.76799 0.195182
0.623803 0.1 0.45 0.226485
0.623803 0.1 -0.45 0.229041
0.714971 0.1 0.3 0.251688
0.714971 0.1 -0.3 0.253691
0.756813 0.1 0.1875 0.266302
0.756813 0.1 -0.1875 0.267674
0.67013 0.1 -0.4125 0.238233
0.67013 0.1 0.4125 0.235738
0.411108 0.1 0.675 0.188885
0.411108 0.1 -0.675 0.191842
0.467897 0.1 0.6375 0.195139
0.467897 0.1 -0.6375 0.198084
0.075776 0.1 -0.7875 0.19379
0.075776 0.1 0.7875 0.190886
0.350249 0.1 -0.7125 0.185891
0.350249 0.1 0.7125 0.182934
0.791054 0.1 0.0690034 0.276814
0.522865 0.1 0.6 0.202813
0.522865 0.1 -0.6 0.205739
0.797314 0.1 -3.03577e-18 0.279753
0.797314 0.1 -0.075 0.279512
0.756814 0.1 0.2625 0.261704
0.756814 0.1 -0.2625 0.263585
0.287374 0.1 -0.75 0.180568
0.287374 0.1 0.75 0.177596
0.574156 0.1 0.5625 0.210754
0.574156 0.1 -0.5625 0.213654
0 0.1 0.80701 0.189369
0 0.1 -0.80701 0.192318
0.714971 0.1 -0.375 0.248098
0.714971 0.1 0.375 0.245672
0.0363518 0.1 0.80701 0.189369
0.0363518 0.1 -0.80701 0.192318
0.797314 0.1 0.15 0.276234
0.797314 0.1 -0.15 0.277412
0.623803 0.1 0.525 0.219619
0.623803 0.1 -0.525 0.222502
0.219992 0.1 -0.7875 0.175423
0.219992 0.1 0.7875 0.172435
0 0.1 0.825 0.187973
0 0.1 -0.825 0.190965
0.797314 0.1 0.225 0.27204
0.797314 0.1 -0.225 0.273766
0.756813 0.1 -0.3375 0.258177
0.756814 0.1 0.3375 0.255841
0.67013 0.1 0.4875 0.228778
0.67013 0.1 -0.4875 0.231629
0.835106 0.1 0.0375 0.288178
0.835106 0.1 -0.0375 0.288496
0.150379 0.1 -0.825 0.181543
0.150379 0.1 0.825 0.178508
0.835106 0.1 0.1125 0.286148
0.835106 0.1 -0.1125 0.287099
0 0.1 -0.84299 0.189611
0 0.1 0.84299 0.186578
0.0363518 0.1 -0.84299 0.189611
0.0363518 0.1 0.84299 0.186578
0.714971 0.1 -0.45 0.241464
0.714971 0.1 0.45 0.238652
0.797314 0.1 0.3 0.266429
0.797314 0.1 -0.3 0.268665
0.467897 0.1 0.7125 0.18834
0.467897 0.1 -0.7125 0.191519
0.522865 0.1 0.675 0.195769
0.522865 0.1 -0.675 0.198942
0.411108 0.1 -0.75 0.185517
0.411108 0.1 0.75 0.182349
0.835106 0.1 -0.1875 0.284013
0.835107 0.1 0.1875 0.282465
0.574156 0.1 0.6375 0.203493
0.574156 0.1 -0.6375 0.206656
0.350249 0.1 -0.7875 0.179831
0.350249 0.1 0.7875 0.176682
0.756814 0.1 0.4125 0.248834
0.756814 0.1 -0.4125 0.25159
0.623803 0.1 0.6 0.212118
0.623803 0.1 -0.6 0.215289
0.075776 0.1 0.8625 0.185068
0.075776 0.1 -0.8625 0.188147
0.871687 0.1 -0.00399773 0.296924
0.287374 0.1 -0.825 0.174658
0.287374 0.1 0.825 0.171499
0.871687 0.1 0.075 0.295822
0.871687 0.1 -0.075 0.296496
0.67013 0.1 0.5625 0.221079
0.67013 0.1 -0.5625 0.224249
0.835106 0.1 0.2625 0.27721
0.835106 0.1 -0.2625 0.279305
0.797314 0.1 0.375 0.259534
0.797314 0.1 -0.375 0.262234
0 0.1 -0.88201 0.186619
0 0.1 0.88201 0.183501
0.0363518 0.1 0.88201 0.183501
0.0363518 0.1 -0.88201 0.186619
0.871687 0.1 0.15 0.292765
0.871687 0.1 -0.15 0.294089
0.714971 0.1 0.525 0.230776
0.714971 0.1 -0.525 0.233935
0.219992 0.1 0.8625 0.166514
0.219993 0.1 -0.8625 0.169681
0 0.1 0.9 0.182059
0 0.1 -0.9 0.185214
0.756813 0.1 0.4875 0.240838
0.756814 0.1 -0.4875 0.243977
0.871687 0.1 0.225 0.28798
0.871687 0.1 -0.225 0.289915
0.835106 0.1 0.3375 0.270505
0.835106 0.1 -0.3375 0.273127
0.90582 0.1 -0.0375 0.305765
0.905821 0.1 0.0375 0.305401
0.150379 0.1 0.9 0.172548
0.150379 0.1 -0.9 0.175749
0.90582 0.1 0.1125 0.303096
0.90582 0.1 -0.1125 0.304156
0.522865 0.1 -0.75 0.191746
0.522865 0.1 0.75 0.188357
0.574156 0.1 0.7125 0.195796
0.574156 0.1 -0.7125 0.199192
0.797314 0.1 0.45 0.251508
0.797314 0.1 -0.45 0.254622
0.467897 0.1 -0.7875 0.184609
0.467897 0.1 0.7875 0.181232
0 0.1 0.91799 0.180618
0 0.1 -0.91799 0.183809
0.0363518 0.1 0.91799 0.180618
0.0363518 0.1 -0.91799 0.183809
0.623803 0.1 0.675 0.204111
0.623803 0.1 -0.675 0.207532
0.411108 0.1 -0.825 0.178896
0.411108 0.1 0.825 0.175542
0.871687 0.1 0.3 0.281581
0.871687 0.1 -0.3 0.284083
0.67013 0.1 0.6375 0.21279
0.67013 0.1 -0.6375 0.216231
0.90582 0.1 0.1875 0.298896
0.905821 0.1 -0.1875 0.300631
0.350249 0.1 0.8625 0.17019
0.350249 0.1 -0.8625 0.173515
0.835106 0.1 0.4125 0.262527
0.835106 0.1 -0.4125 0.265605
0.714971 0.1 0.6 0.222204
0.714971 0.1 -0.6 0.225661
0.93886 0.1 -0.00399773 0.314026
0.075776 0.1 0.9375 0.179057
0.075776 0.1 -0.9375 0.182289
0.93886 0.1 0.075 0.312753
0.93886 0.1 -0.075 0.313522
0.756813 0.1 0.5625 0.232029
0.756814 0.1 -0.5625 0.235493
0.90582 0.1 0.2625 0.292913
0.905821 0.1 -0.2625 0.295266
0.287374 0.1 0.9 0.165207
0.287374 0.1 -0.9 0.168531
0.871687 0.1 0.375 0.273729
0.871687 0.1 -0.375 0.27674
0.93886 0.1 0.15 0.309311
0.93886 0.1 -0.15 0.310817
0.797314 0.1 0.525 0.242528
0.797314 0.1 -0.525 0.246005
0 0.1 0.95701 0.177454
0 0.1 -0.95701 0.180721
0.0363518 0.1 0.95701 0.177454
0.0363518 0.1 -0.95701 0.180721
0.219992 0.1 0.9375 0.160427
0.219992 0.1 -0.9375 0.163749
0.93886 0.1 0.225 0.303929
0.93886 0.1 -0.225 0.306128
0.90582 0.1 0.3375 0.285282
0.905821 0.1 -0.3375 0.288211
0.835107 0.1 0.4875 0.253436
0.835107 0.1 -0.4875 0.256908
0.969689 0.1 0.0375 0.322343
0.969689 0.1 -0.0375 0.322767
0.574156 0.1 0.7875 0.187788
0.574156 0.1 -0.7875 0.19138
0 0.1 0.975 0.17598
0 0.1 -0.975 0.17928
0.623803 0.1 0.75 0.195726
0.623803 0.1 -0.75 0.199361
0.96969 0.1 0.1125 0.319769
0.96969 0.1 -0.1125 0.320993
0.522865 0.1 -0.825 0.184254
0.522865 0.1 0.825 0.18068
0.67013 0.1 0.7125 0.204045
0.67013 0.1 -0.7125 0.207721
0.871687 0.1 0.45 0.264611
0.871687 0.1 -0.45 0.268057
0.467897 0.1 0.8625 0.173892
0.467897 0.1 -0.8625 0.177446
0.714971 0.1 -0.675 0.216801
0.714971 0.1 0.675 0.213091
0.93886 0.1 0.3 0.296739
0.93886 0.1 -0.3 0.299565
0.150379 0.1 0.975 0.166436
0.150379 0.1 -0.975 0.169781
0.969689 0.1 -0.1875 0.317088
0.969689 0.1 0.1875 0.315088
0.411108 0.1 0.9 0.168546
0.411108 0.1 -0.9 0.172061
0.756813 0.1 0.6375 0.222575
0.756813 0.1 -0.6375 0.226315
0.990306 0.1 3.46945e-18 0.327173
0 0.1 0.99299 0.174505
0 0.1 -0.99299 0.177838
0.990306 0.1 0.075 0.325783
0.990306 0.1 -0.075 0.326638
0.0363518 0.1 0.99299 0.174505
0.0363518 0.1 -0.99299 0.177838
0.905821 0.1 0.4125 0.276215
0.905821 0.1 -0.4125 0.279623
0.797314 0.1 0.6 0.232788
0.797314 0.1 -0.6 0.23657
0.350249 0.1 0.9375 0.163544
0.350249 0.1 -0.9375 0.167019
0.990306 0.1 0.15 0.322008
0.990306 0.1 -0.15 0.323681
0.969689 0.1 -0.2625 0.311137
0.969689 0.1 0.2625 0.308438
0.835106 0.1 0.5625 0.243446
0.835106 0.1 -0.5625 0.247267
0.93886 0.1 0.375 0.287919
0.93886 0.1 -0.375 0.291289
0.075776 0.1 1.0125 0.172909
0.075776 0.1 -1.0125 0.176278
0.990306 0.1 0.225 0.316113
0.990306 0.1 -0.225 0.318549
0.287374 0.1 0.975 0.158781
0.287374 0.1 -0.975 0.162248
0.871687 0.1 0.525 0.254432
0.871687 0.1 -0.525 0.258252
1.02149 0.1 -0.0369628 0.33567
1.02149 0.1 0.0369628 0.336886
0.969689 0.1 -0.3375 0.303272
0.96969 0.1 0.3375 0.299959
1.02149 0.1 0.110888 0.334069
1.02149 0.1 -0.110888 0.335406
0.90582 0.1 0.4875 0.265913
0.905821 0.1 -0.4875 0.269727
0 0.1 1.03201 0.171287
0 0.1 -1.03201 0.174685
0.0363518 0.1 1.03201 0.171287
0.0363518 0.1 -1.03201 0.174685
0.67013 0.1 0.7875 0.194995
0.67013 0.1 -0.7875 0.198863
0.623803 0.1 -0.825 0.190904
0.623803 0.1 0.825 0.187088
0.990306 0.1 0.3 0.308243
0.990306 0.1 -0.3 0.311359
0.219992 0.1 -1.0125 0.157684
0.219992 0.1 1.0125 0.154228
0.574156 0.1 -0.8625 0.183332
0.574157 0.1 0.8625 0.179568
0.714971 0.1 0.75 0.203594
0.714971 0.1 -0.75 0.207516
1.02149 0.1 0.184814 0.328951
1.02149 0.1 -0.184814 0.331129
0.756814 0.1 0.7125 0.212647
0.756813 0.1 -0.7125 0.21662
0.522865 0.1 0.9 0.172834
0.522865 0.1 -0.9 0.176566
0.93886 0.1 0.45 0.277682
0.93886 0.1 -0.45 0.281525
1.04168 0.1 0 0.343196
1.04168 0.1 0.0729162 0.341536
1.04168 0.1 -0.0729162 0.342478
0.797314 0.1 0.675 0.222476
0.797314 0.1 -0.675 0.226508
0.467897 0.1 0.9375 0.16642
0.467897 0.1 -0.9375 0.170117
0 0.1 1.05 0.169795
0 0.1 -1.05 0.17322
0.835106 0.1 0.6375 0.232777
0.835106 0.1 -0.6375 0.236868
1.04168 0.1 0.145832 0.337546
1.04168 0.1 -0.145832 0.339392
1.02149 0.1 0.25874 0.321673
1.02149 0.1 -0.25874 0.324607
0.969689 0.1 0.4125 0.28988
0.969689 0.1 -0.4125 0.293698
0.411108 0.1 0.975 0.161436
0.411108 0.1 -0.975 0.165088
0.871687 0.1 0.6 0.243422
0.871687 0.1 -0.6 0.247551
1.0579 0.1 -0.0360525 0.34766
1.0579 0.1 0.0360525 0.347716
0.990306 0.1 0.375 0.298595
0.990306 0.1 -0.375 0.302295
0.150379 0.1 1.05 0.160229
0.150379 0.1 -1.05 0.163699
1.0579 0.1 -0.108157 0.34628
1.0579 0.1 0.108157 0.344898
1.04168 0.1 0.218749 0.331323
1.04168 0.1 -0.218749 0.33401
0.90582 0.1 0.5625 0.254612
0.905821 0.1 -0.5625 0.258776
0 0.1 -1.06799 0.171755
0 0.1 1.06799 0.168302
0.0363518 0.1 -1.06799 0.171755
0.0363518 0.1 1.06799 0.168302
0.350249 0.1 1.0125 0.156796
0.350249 0.1 -1.0125 0.160404
1.0579 0.1 -0.180262 0.342046
1.0579 0.1 0.180262 0.339793
1.02149 0.1 0.332665 0.312402
1.02149 0.1 -0.332665 0.316001
0.93886 0.1 0.525 0.266285
0.93886 0.1 -0.525 0.270533
1.08012 0.1 1.70581e-17 0.354683
1.04168 0.1 0.291665 0.323018
1.04168 0.1 -0.291665 0.326451
1.08012 0.1 0.0709941 0.353005
1.08012 0.1 -0.074001 0.353915
0.969689 0.1 -0.4875 0.282726
0.96969 0.1 0.4875 0.278407
1.0579 0.1 0.252367 0.33253
1.0579 0.1 -0.252367 0.335568
0.990306 0.1 -0.45 0.291615
0.990306 0.1 0.45 0.287407
0.287374 0.1 -1.05 0.155868
0.287374 0.1 1.05 0.152279
1.08012 0.1 0.141988 0.349004
1.08012 0.1 -0.141988 0.350946
0.075776 0.1 1.0875 0.166687
0.075776 0.1 -1.0875 0.17017
0.714971 0.1 0.825 0.193865
0.714971 0.1 -0.825 0.197961
0.756813 0.1 0.7875 0.202421
0.756813 0.1 -0.7875 0.206584
0.67013 0.1 0.8625 0.18576
0.67013 0.1 -0.8625 0.18979
0.797314 0.1 -0.75 0.216014
0.797314 0.1 0.75 0.211779
0.623803 0.1 0.9 0.178314
0.623803 0.1 -0.9 0.18228
0.835106 0.1 0.7125 0.221616
0.835107 0.1 -0.7125 0.22593
0.574156 0.1 0.9375 0.171251
0.574156 0.1 -0.9375 0.175155
1.02149 0.1 -0.406591 0.305565
1.02149 0.1 0.406591 0.301384
1.08012 0.1 -0.212982 0.3456
1.08012 0.1 0.212982 0.342773
1.10076 0.1 -0.0349809 0.361413
1.10076 0.1 0.0349809 0.36088
0.871687 0.1 0.675 0.231806
0.871687 0.1 -0.675 0.236179
1.04168 0.1 0.364581 0.31283
1.04168 0.1 -0.364581 0.316913
1.10076 0.1 0.104943 0.357987
1.10076 0.1 -0.104943 0.35956
0.522865 0.1 0.975 0.164911
0.522865 0.1 -0.975 0.168774
1.0579 0.1 0.324472 0.323272
1.0579 0.1 -0.324472 0.326993
0 0.1 -1.10701 0.168567
0 0.1 1.10701 0.165058
0.0363518 0.1 1.10701 0.165058
0.0363518 0.1 -1.10701 0.168567
0.90582 0.1 0.6375 0.242567
0.905821 0.1 -0.6375 0.247001
0.219992 0.1 1.0875 0.147972
0.219992 0.1 -1.0875 0.15154
0.93886 0.1 0.6 0.254012
0.93886 0.1 -0.6 0.258555
1.10076 0.1 0.174905 0.352794
1.10076 0.1 -0.174905 0.355361
0.467897 0.1 1.0125 0.15888
0.467897 0.1 -1.0125 0.1627
1.08012 0.1 0.283976 0.334454
1.08012 0.1 -0.283976 0.338065
1.11928 0.1 -0.00290737 0.366459
1.11711 0.1 -0.0710826 0.364723
0.990306 0.1 0.525 0.274978
0.990306 0.1 -0.525 0.279597
0.969689 0.1 0.5625 0.265923
0.96969 0.1 -0.5625 0.270603
1.11928 0.1 0.0690357 0.364726
0 0.1 1.125 0.16356
0 0.1 -1.125 0.167093
1.11807 0.1 -0.138193 0.36203
0.411108 0.1 -1.05 0.158049
0.411108 0.1 1.05 0.154281
1.10076 0.1 -0.244866 0.348889
1.10076 0.1 0.244866 0.345426
1.11928 0.1 0.138072 0.360651
1.02149 0.1 0.480517 0.288911
1.02149 0.1 -0.480517 0.293532
1.0579 0.1 -0.396577 0.316548
1.0579 0.1 0.396577 0.312245
1.04168 0.1 0.437497 0.301021
1.04168 0.1 -0.437497 0.305631
0.150379 0.1 1.125 0.153977
0.150379 0.1 -1.125 0.157552
1.08012 0.1 0.354971 0.324233
1.08012 0.1 -0.354971 0.328517
1.11807 0.1 -0.207288 0.356691
1.11928 0.1 0.207107 0.354326
0.350249 0.1 1.0875 0.150018
0.350249 0.1 -1.0875 0.153734
0 0.1 1.14299 0.162062
0 0.1 -1.14299 0.165619
0.0363518 0.1 1.14299 0.162062
0.0363518 0.1 -1.14299 0.165619
1.14316 0.1 -0.0339211 0.373904
1.14316 0.1 0.0339211 0.373634
1.10076 0.1 0.314829 0.336033
1.10076 0.1 -0.314829 0.340277
0.797314 0.1 0.825 0.200877
0.797314 0.1 -0.825 0.205271
0.756814 0.1 -0.8625 0.196369
0.756814 0.1 0.8625 0.192057
1.14316 0.1 -0.101763 0.372335
1.14316 0.1 0.101763 0.370697
0.835106 0.1 0.7875 0.210178
0.835107 0.1 -0.7875 0.21466
0.714971 0.1 0.9 0.184043
0.714971 0.1 -0.9 0.188277
0.871687 0.1 0.75 0.219808
0.871687 0.1 -0.75 0.224374
1.11807 0.1 -0.276385 0.349131
0.67013 0.1 0.9375 0.176471
0.67013 0.1 -0.9375 0.180628
0.905821 0.1 0.7125 0.230017
0.905821 0.1 -0.7125 0.23466
1.11928 0.1 0.276143 0.345887
1.14316 0.1 -0.169605 0.368115
1.14316 0.1 0.169605 0.365443
0.93886 0.1 0.675 0.2411
0.93886 0.1 -0.675 0.24586
1.15704 0.1 0 0.378008
1.0579 0.1 0.468682 0.299719
1.0579 0.1 -0.468682 0.304458
0.623803 0.1 0.975 0.16951
0.623803 0.1 -0.975 0.173598
0.990306 0.1 0.6 0.261619
0.990306 0.1 -0.6 0.266518
1.15704 0.1 -0.0671479 0.377399
1.15704 0.1 0.0671479 0.376217
1.04168 0.1 0.510414 0.287874
1.04168 0.1 -0.510414 0.292877
0.969689 0.1 0.6375 0.25269
0.96969 0.1 -0.6375 0.257569
1.08012 0.1 0.425965 0.312353
1.08012 0.1 -0.425965 0.317177
0.287374 0.1 -1.125 0.149444
0.287374 0.1 1.125 0.145754
1.02149 0.1 0.554443 0.275275
1.02149 0.1 -0.554443 0.280209
0.574156 0.1 -1.0125 0.166942
0.574156 0.1 1.0125 0.162919
1.15704 0.1 -0.134296 0.3744
1.15704 0.1 0.134296 0.372068
0.075776 0.1 1.1625 0.160441
0.075776 0.1 -1.1625 0.164023
1.10076 0.1 0.384791 0.324827
1.10076 0.1 -0.384791 0.329727
1.14316 0.1 -0.237448 0.361596
1.14316 0.1 0.237448 0.357984
1.11807 0.1 -0.345481 0.339513
1.11928 0.1 0.345179 0.335512
0.522865 0.1 1.05 0.156991
0.522865 0.1 -1.05 0.160961
1.15704 0.1 -0.201444 0.369057
1.15704 0.1 0.201444 0.365654
1.1744 0.1 -0.0331401 0.383509
1.1744 0.1 0.0331401 0.382396
1.1744 0.1 -0.0994202 0.381717
1.1744 0.1 0.0994202 0.379887
0 0.1 1.18201 0.15882
0 0.1 -1.18201 0.162424
0.0363518 0.1 1.18201 0.15882
0.0363518 0.1 -1.18201 0.162424
0.219992 0.1 1.1625 0.141693
0.219993 0.1 -1.1625 0.145356
1.14316 0.1 -0.30529 0.352899
1.14316 0.1 0.30529 0.348472
0.467897 0.1 1.0875 0.15136
0.467897 0.1 -1.0875 0.155275
1.1744 0.1 -0.1657 0.377543
1.1744 0.1 0.1657 0.374557
1.15704 0.1 -0.268592 0.361463
1.15704 0.1 0.268592 0.357104
1.0579 0.1 0.540787 0.285973
1.0579 0.1 -0.540787 0.291046
1.08012 0.1 0.496959 0.299081
1.08012 0.1 -0.496959 0.304315
1.10076 0.1 0.454752 0.312067
1.10076 0.1 -0.454752 0.317461
1.11807 0.1 -0.414577 0.328044
1.11928 0.1 0.414214 0.323434
1.04168 0.1 0.58333 0.273687
1.04168 0.1 -0.58333 0.278971
1.19529 0.1 0.0650961 0.387703
1.1744 0.1 0.231981 0.367012
1.1744 0.1 -0.231981 0.371056
0.411108 0.1 1.125 0.147145
0.411108 0.1 -1.125 0.151005
1.19808 0.1 3.5851e-17 0.390634
0.990306 0.1 0.675 0.247595
0.990306 0.1 -0.675 0.2527
1.02149 0.1 0.628368 0.260763
1.02149 0.1 -0.628368 0.265942
1.19808 0.1 -0.0650961 0.390078
0 0.1 1.2 0.157328
0 0.1 -1.2 0.160953
0.871687 0.1 -0.825 0.212363
0.871687 0.1 0.825 0.207649
0.905821 0.1 -0.7875 0.222029
0.90582 0.1 0.7875 0.217213
0.835106 0.1 0.8625 0.198636
0.835106 0.1 -0.8625 0.203243
0.93886 0.1 0.75 0.227806
0.93886 0.1 -0.75 0.232735
0.797314 0.1 0.9 0.189933
0.797314 0.1 -0.9 0.194447
1.14316 0.1 -0.373132 0.342214
1.14316 0.1 0.373132 0.337105
0.969689 0.1 0.7125 0.238899
0.969689 0.1 -0.7125 0.24397
1.15704 0.1 -0.33574 0.35177
1.15704 0.1 0.33574 0.346591
0.756813 0.1 0.9375 0.181693
0.756814 0.1 -0.9375 0.18612
1.19808 0.1 0.130192 0.384339
1.19808 0.1 -0.130192 0.387126
0.714971 0.1 0.975 0.174248
0.714971 0.1 -0.975 0.178591
0.150379 0.1 1.2 0.147727
0.150379 0.1 -1.2 0.151391
1.20938 0.1 -0.0322656 0.394105
1.20938 0.1 0.0322656 0.393443
1.19808 0.1 0.178844 0.378093
1.1744 0.1 0.298261 0.357397
1.1744 0.1 -0.298261 0.362367
1.20938 0.1 -0.0967968 0.392358
1.20938 0.1 0.0967968 0.390381
1.19808 0.1 -0.195288 0.381821
0.350249 0.1 1.1625 0.143254
0.350249 0.1 -1.1625 0.147057
0.67013 0.1 1.0125 0.167225
0.67013 0.1 -1.0125 0.171486
0 0.1 1.21799 0.155837
0 0.1 -1.21799 0.159481
1.11807 0.1 -0.483674 0.314986
0.0363518 0.1 1.21799 0.155837
0.0363518 0.1 -1.21799 0.159481
1.11928 0.1 0.48325 0.309912
1.10076 0.1 -0.524714 0.303793
1.10076 0.1 0.524714 0.298016
1.20938 0.1 -0.161328 0.388227
1.20938 0.1 0.161328 0.384994
1.08012 0.1 0.567953 0.284724
1.08012 0.1 -0.567953 0.290241
0.623803 0.1 1.05 0.160768
0.623803 0.1 -1.05 0.164953
1.0579 0.1 -0.612892 0.276615
1.0579 0.1 0.612892 0.27133
1.15704 0.1 -0.402888 0.340173
1.15704 0.1 0.402888 0.33434
1.14316 0.1 0.440974 0.324138
1.14316 0.1 -0.440974 0.329752
1.19808 0.1 -0.260384 0.374246
1.19808 0.1 0.260384 0.369461
1.2267 0.1 3.64292e-18 0.398878
1.2267 0.1 -0.0636649 0.398359
1.2267 0.1 0.0636649 0.396992
1.1744 0.1 -0.364541 0.351656
1.1744 0.1 0.364541 0.345908
0.574156 0.1 1.0875 0.154661
0.574156 0.1 -1.0875 0.158775
1.20938 0.1 -0.225859 0.381769
1.20938 0.1 0.225859 0.377382
1.04168 0.1 0.656246 0.258768
1.04168 0.1 -0.656246 0.264254
1.22587 0.1 0.12733 0.392255
1.2267 0.1 -0.12733 0.395441
0.287374 0.1 -1.2 0.143019
0.287374 0.1 1.2 0.139248
1.02149 0.1 0.702294 0.245726
1.02149 0.1 -0.702294 0.251096
0.075776 0.1 1.2375 0.154223
0.075776 0.1 -1.2375 0.157889
0.522865 0.1 1.125 0.149142
0.522865 0.1 -1.125 0.153198
1.2267 0.1 0.190397 0.386093
1.2267 0.1 -0.190994 0.390163
1.19808 0.1 0.32548 0.358846
1.19808 0.1 -0.32548 0.364544
0.990306 0.1 0.75 0.233211
0.990306 0.1 -0.75 0.238463
1.24274 0.1 -0.0314313 0.403993
1.24274 0.1 0.0314313 0.403283
1.20938 0.1 -0.29039 0.373093
1.20938 0.1 0.29039 0.367691
1.24274 0.1 -0.0942942 0.402292
1.24274 0.1 0.0942942 0.400169
1.11807 0.1 -0.552769 0.300648
1.11928 0.1 0.552285 0.295247
1.15704 0.1 -0.470036 0.326915
1.15704 0.1 0.470036 0.320604
0.969689 0.1 0.7875 0.224895
0.96969 0.1 -0.7875 0.23007
0.93886 0.1 -0.825 0.219438
0.93886 0.1 0.825 0.214395
0.905821 0.1 0.8625 0.204394
0.905821 0.1 -0.8625 0.209337
1.1744 0.1 -0.430821 0.339123
1.1744 0.1 0.430821 0.332793
1.10076 0.1 0.594676 0.283029
1.10076 0.1 -0.594676 0.289022
1.14316 0.1 -0.508816 0.315806
1.14316 0.1 0.508816 0.309827
1.24274 0.1 0.157157 0.394727
1.24274 0.1 -0.157157 0.398204
1.2267 0.1 0.254158 0.377495
1.2267 0.1 -0.254659 0.382605
0.871687 0.1 -0.9 0.200337
0.871687 0.1 0.9 0.195516
0.467897 0.1 1.1625 0.143906
0.467897 0.1 -1.1625 0.147905
1.08012 0.1 0.638947 0.269587
1.08012 0.1 -0.638947 0.275271
1.25511 0.1 1.27213e-17 0.407026
0.835106 0.1 0.9375 0.187164
0.835106 0.1 -0.9375 0.191865
1.25511 0.1 -0.0622446 0.406522
1.25511 0.1 0.0622446 0.405121
0.219992 0.1 1.2375 0.135434
0.219992 0.1 -1.2375 0.139177
0 0.1 -1.25701 0.156304
0 0.1 1.25701 0.15262
0.0363518 0.1 -1.25701 0.156304
0.0363518 0.1 1.25701 0.15262
0.797314 0.1 0.975 0.179091
0.797314 0.1 -0.975 0.183693
1.19808 0.1 0.389737 0.346464
1.19808 0.1 -0.390576 0.352897
1.0579 0.1 -0.684997 0.261506
1.0579 0.1 0.684997 0.256082
1.20938 0.1 -0.354921 0.362366
1.20938 0.1 0.354921 0.356104
1.25511 0.1 0.124489 0.400849
1.25511 0.1 -0.124489 0.403618
1.24274 0.1 -0.220019 0.391774
1.24274 0.1 0.220019 0.387053
0.756814 0.1 1.0125 0.171446
0.756814 0.1 -1.0125 0.175964
1.25305 0.1 0.186734 0.392365
1.2267 0.1 0.317097 0.366812
1.2267 0.1 -0.318324 0.372902
0.411108 0.1 1.2 0.140079
0.411108 0.1 -1.2 0.144013
1.25511 0.1 -0.186734 0.398348
0.714971 0.1 1.05 0.16459
0.714971 0.1 -1.05 0.169016
1.04168 0.1 0.729162 0.243459
1.04168 0.1 -0.729162 0.249081
1.24274 0.1 -0.282882 0.383115
1.24274 0.1 0.282882 0.377286
0 0.1 1.275 0.151146
0 0.1 -1.275 0.154846
1.1744 0.1 -0.497102 0.325039
1.1744 0.1 0.497102 0.318305
1.15704 0.1 -0.537184 0.312308
1.15704 0.1 0.537184 0.305671
1.2756 0.1 -0.03061 0.413622
1.2756 0.1 0.03061 0.412864
0.67013 0.1 1.0875 0.158125
0.67013 0.1 -1.0875 0.162461
1.25305 0.1 0.248978 0.385056
1.2756 0.1 0.09183 0.409706
1.2756 0.1 -0.09183 0.411966
1.11807 0.1 -0.621866 0.285348
1.25511 0.1 -0.248978 0.390789
1.20938 0.1 0.419453 0.342869
1.20938 0.1 -0.419453 0.349785
1.11928 0.1 0.621322 0.279754
1.14316 0.1 -0.576659 0.300697
1.14316 0.1 0.576659 0.294499
1.19808 0.1 0.454694 0.332566
1.19808 0.1 -0.455673 0.339523
1.02149 0.1 0.776219 0.230522
1.02149 0.1 -0.776219 0.235993
0.150379 0.1 1.275 0.141519
0.150379 0.1 -1.275 0.145256
1.2267 0.1 0.381603 0.354348
1.2756 0.1 -0.15305 0.407922
1.2756 0.1 0.15305 0.404218
1.2267 0.1 -0.381989 0.361233
1.10076 0.1 0.664638 0.26737
1.10076 0.1 -0.664638 0.273481
0.350249 0.1 1.2375 0.13655
0.350249 0.1 -1.2375 0.14042
0.623803 0.1 1.125 0.152161
0.623803 0.1 -1.125 0.156422
0.990306 0.1 0.825 0.218756
0.990306 0.1 -0.825 0.224086
1.24274 0.1 -0.345745 0.372377
1.24274 0.1 0.345745 0.365606
1.2906 0.1 0 0.417432
1.25305 0.1 0.311223 0.374305
1.2906 0.1 -0.0604698 0.417014
1.2906 0.1 0.0604698 0.415441
1.08012 0.1 -0.709941 0.259762
1.08012 0.1 0.709941 0.253976
0 0.1 1.29299 0.149671
0 0.1 -1.29299 0.153388
1.25511 0.1 -0.311223 0.38107
1.2756 0.1 0.214269 0.396488
1.2756 0.1 -0.214269 0.401531
0.0363518 0.1 -1.29299 0.153388
0.0363518 0.1 1.29299 0.149671
1.2906 0.1 -0.12094 0.414192
1.2906 0.1 0.12094 0.411083
0.574156 0.1 1.1625 0.146527
0.574157 0.1 -1.1625 0.150716
0.969689 0.1 -0.8625 0.216137
0.969689 0.1 0.8625 0.210906
0.93886 0.1 -0.9 0.206194
0.93886 0.1 0.9 0.201079
1.0579 0.1 -0.757102 0.246088
1.0579 0.1 0.757102 0.24057
1.1744 0.1 -0.563382 0.309754
1.1744 0.1 0.563382 0.302752
1.20938 0.1 0.483984 0.328235
1.20938 0.1 -0.483984 0.335572
1.2906 0.1 -0.181409 0.408998
1.2906 0.1 0.181409 0.404435
0.90582 0.1 0.9375 0.191732
0.90582 0.1 -0.9375 0.196756
1.2267 0.1 0.445203 0.34035
1.2756 0.1 0.275489 0.386657
1.2756 0.1 -0.275489 0.392895
1.2267 0.1 -0.445653 0.347806
1.15704 0.1 -0.604332 0.296671
1.15704 0.1 0.604332 0.28986
1.19808 0.1 0.51965 0.317413
1.19808 0.1 -0.520769 0.324741
1.30646 0.1 0.0298385 0.421543
1.30646 0.1 -0.0298385 0.422351
0.287374 0.1 -1.275 0.136633
0.287374 0.1 1.275 0.132798
1.25305 0.1 0.373467 0.36176
0.871687 0.1 0.975 0.183568
0.871687 0.1 -0.975 0.188461
1.24274 0.1 0.408607 0.35226
1.24274 0.1 -0.408607 0.359764
0.522865 0.1 1.2 0.141428
0.522865 0.1 -1.2 0.145551
1.25511 0.1 -0.373467 0.369366
1.30646 0.1 -0.0895157 0.420747