# pMean  POINT_DATA 91132
# x  y  z  pMean
0 0 0 0.240694
0 0.00368111 0 0.240359
0 0.00749587 0 0.239626
0 0.0114491 0 0.238895
0 0.0155459 0 0.238235
0 0.0197915 0 0.237539
0 0.0241911 0 0.236752
0 0.0287506 0 0.235884
0 0.0334755 0 0.234966
0 0.038372 0 0.234018
0 0.0434463 0 0.233049
0 0.0487048 0 0.232069
0 0.0541543 0 0.231105
0 0.0598016 0 0.230203
0 0.0656539 0 0.229376
0 0.0717187 0 0.22858
0.075776 0.00184056 0 0.240694
0.075776 0.00558849 3.46945e-18 0.240023
0.075776 0.00947249 0 0.239229
0.075776 0.0134975 0 0.238561
0.075776 0.0176687 0 0.237908
0 0.0780037 0 0.227778
0.075776 0.0219913 0 0.23717
0.075776 0.0264709 -3.46945e-18 0.236334
0.075776 0.031113 3.46945e-18 0.235434
0.075776 0.0359238 0 0.234498
0 0.0845169 0 0.226959
0.075776 0.0409091 0 0.233537
0.075776 0.0460755 0 0.23256
0 0.0912666 0 0.226127
0.075776 0.0514296 0 0.231578
0.075776 0.0569779 0 0.230633
0 0.0982613 0 0.225283
0.075776 0.0627277 -3.46945e-18 0.229774
0.075776 0.0686863 0 0.228977
0 0.10551 0 0.224425
0.075776 0.0748612 0 0.228183
0.075776 0.0812603 0 0.227372
0 0.113022 0 0.223553
0.075776 0.0878918 0 0.226546
0 0.120806 0 0.222664
0.075776 0.0947639 0 0.225708
0.075776 0.101886 -3.46945e-18 0.224857
0 0.128874 0 0.221757
0.075776 0.109266 0 0.223993
0 0.137234 0 0.220839
0.075776 0.116914 0 0.223113
0 0.145897 0 0.219934
0.075776 0.12484 0 0.222215
0.151552 0 0 0.22295
0.151552 0.00368111 0 0.22282
0.151552 0.00749587 0 0.222569
0.151552 0.0114491 0 0.222363
0.151552 0.0155459 0 0.222194
0.151552 0.0197915 0 0.221999
0.075776 0.133054 -3.46945e-18 0.221298
0.151552 0.0241911 0 0.221754
0.151552 0.0287506 0 0.221462
0 0.154876 0 0.21907
0.151552 0.0334755 0 0.221139
0.151552 0.038372 0 0.220795
0.151552 0.0434463 0 0.220435
0.151552 0.0487048 0 0.220064
0.075776 0.141565 0 0.22038
0.151552 0.0541543 0 0.219693
0.151552 0.0598016 0 0.219344
0 0.16418 0 0.21826
0.151552 0.0656539 0 0.219022
0.151552 0.0717187 0 0.218707
0.075776 0.150387 -3.46945e-18 0.219489
0.151552 0.0780037 0 0.218379
0.151552 0.0845169 0 0.218033
0 0.173822 0 0.217504
0.075776 0.159528 -3.46945e-18 0.21865
0.151552 0.0912666 0 0.217671
0.151552 0.0982613 0 0.217297
0 0.183814 0 0.216786
0.151552 0.10551 0 0.216914
0.075776 0.169001 0 0.21787
0.151552 0.113022 0 0.216519
0.151552 0.120806 0 0.216105
0 0.194169 0 0.216086
0.075776 0.178818 3.46945e-18 0.217138
0.151552 0.128874 0 0.215667
0.075776 0.188991 0 0.216433
0.151552 0.137234 0 0.215207
0 0.2049 0 0.215389
0.151552 0.145897 0 0.214739
0.075776 0.199534 0 0.215738
0 0.21602 0 0.214676
0.151552 0.154876 0 0.214278
0.219992 0.00184055 0 0.206571
0.219992 0.00558849 -3.46945e-18 0.206692
0.219992 0.00947248 3.46945e-18 0.206956
0.219992 0.0134975 -3.46945e-18 0.207249
0.219992 0.0176687 3.46945e-18 0.207525
0.219992 0.0219913 3.46945e-18 0.207786
0.219993 0.0264709 0 0.208033
0.219992 0.031113 -3.46945e-18 0.208265
0.219992 0.0359237 3.46945e-18 0.208484
0.151552 0.16418 0 0.213832
0.075776 0.21046 3.46945e-18 0.215039
0.219992 0.0409092 0 0.208693
0.219992 0.0460755 0 0.20889
0.219993 0.0514296 0 0.209073
0.219992 0.0569779 0 0.209242
0 0.227544 0 0.213923
0.219992 0.0627277 0 0.209396
0.219992 0.0686863 -3.46945e-18 0.209533
0.151552 0.173822 0 0.213398
0.219992 0.0748612 3.46945e-18 0.209653
0.075776 0.221782 0 0.214313
0.219992 0.0812603 0 0.209753
0.219992 0.0878917 0 0.209834
0.151552 0.183814 0 0.212968
7.47806e-17 0.239487 0 0.213116
0.219993 0.0947639 0 0.209898
0.219992 0.101886 0 0.209954
0.075776 0.233515 3.46945e-18 0.213533
0.219993 0.109266 0 0.210005
0.151552 0.194169 0 0.212533
0.219992 0.116914 3.46945e-18 0.210044
0 0.251863 0 0.212268
0.219992 0.12484 -3.46945e-18 0.210056
0.151552 0.2049 0 0.212084
0.075776 0.245675 0 0.212699
0.219992 0.133054 0 0.210034
0.219992 0.141566 0 0.209982
0.151552 0.21602 0 0.211612
0 0.264688 0 0.211398
0.219993 0.150387 0 0.209905
0.075776 0.258275 3.46945e-18 0.211837
0.219992 0.159528 0 0.209805
0.151552 0.227544 0 0.211102
0.219993 0.169001 -3.46945e-18 0.209681
0 0.27798 0 0.210512
0.075776 0.271334 0 0.210959
0.151552 0.239487 3.70071e-18 0.210549
0.219992 0.178818 0 0.209532
0.288433 0 0 0.210676
0.288433 0.00368111 0 0.21072
0.288433 0.00749587 0 0.210852
0.288433 0.0114491 0 0.211042
0.288433 0.0155459 0 0.211242
0.288433 0.0197915 0 0.21144
0.288433 0.0241911 0 0.211634
0.288433 0.0287506 0 0.211822
0.219993 0.188991 0 0.209356
0.288433 0.0334755 0 0.212003
0.288433 0.038372 0 0.212178
0.288433 0.0434463 0 0.212347
7.47806e-17 0.291753 0 0.209605
0.288433 0.0487048 0 0.212508
0.288433 0.0541543 0 0.21266
0.151552 0.251863 0 0.209957
0.288433 0.0598016 0 0.212801
0.075776 0.284867 0 0.210064
0.288433 0.0656539 0 0.212932
0.219992 0.199534 0 0.209151
0.288433 0.0717187 0 0.213053
0.288433 0.0780037 0 0.213164
0.288433 0.0845169 0 0.21326
0.288433 0.0912666 0 0.213336
0.219992 0.21046 0 0.208915
0.288433 0.0982613 0 0.213393
0.151552 0.264688 3.70071e-18 0.209337
0 0.306027 0 0.208667
0.288433 0.10551 0 0.213436
0.075776 0.29889 -3.46945e-18 0.209145
0.288433 0.113022 0 0.213465
0.219992 0.221782 0 0.208648
0.288433 0.120806 0 0.213477
0.288433 0.128874 0 0.213471
0.151552 0.27798 0 0.208696
0.288433 0.137234 0 0.213444
0 0.320819 0 0.207691
0.219993 0.233515 0 0.208346
0.075776 0.313423 3.46945e-18 0.208189
0.288433 0.145897 0 0.213394
0.288433 0.154876 0 0.213319
0.151552 0.291753 0 0.20803
0.219993 0.245675 0 0.208009
0.288433 0.16418 0 0.21322
0 0.336148 0 0.206692
0.288433 0.173822 0 0.213096
0.075776 0.328484 0 0.207193
0.219992 0.258275 0 0.207635
0.151552 0.306027 0 0.207331
0.288433 0.183814 0 0.212945
0.288433 0.194169 0 0.212767
0.219993 0.271334 0 0.207232
0.350249 0.00184056 0 0.21448
0.350249 0.00558849 3.46945e-18 0.214536
0.350249 0.00947248 0 0.214633
0.350249 0.0134975 3.46945e-18 0.214751
0.350249 0.0176687 -3.46945e-18 0.214878
0.350249 0.0219913 0 0.215014
0.350249 0.0264709 -3.46945e-18 0.215154
0.350249 0.031113 0 0.215295
0 0.352034 0 0.205708
0.350249 0.0359238 3.46945e-18 0.215435
0.075776 0.344091 0 0.206192
0.350249 0.0409091 3.46945e-18 0.215574
0.350249 0.0460755 -3.46945e-18 0.215709
0.288433 0.2049 0 0.212558
0.350249 0.0514296 0 0.215841
0.151552 0.320819 0 0.206587
0.350249 0.0569779 0 0.215968
0.350249 0.0627277 0 0.216088
0.350249 0.0686863 0 0.216203
0.350249 0.0748612 0 0.216316
0.350249 0.0812603 0 0.216426
0.219992 0.284867 0 0.206806
0.288433 0.21602 0 0.212317
0.350249 0.0878918 0 0.216519
0.350249 0.0947639 0 0.216585
0.350249 0.101886 0 0.216628
0.350249 0.109266 3.46945e-18 0.21665
0.288433 0.227544 0 0.212043
0.075776 0.360265 0 0.205223
0 0.368496 0 0.204733
0.151552 0.336148 0 0.205802
0.350249 0.116914 -3.46945e-18 0.216654
0.219992 0.29889 -3.46945e-18 0.206348
0.370854 0.0241911 -3.08149e-33 0.21808
0.350249 0.12484 3.46945e-18 0.216649
0.350249 0.133054 0 0.216641
0.288433 0.239487 -9.25154e-19 0.211734
0.350249 0.141565 3.46945e-18 0.216617
0.350249 0.150387 0 0.216568
0.288433 0.251863 0 0.211387
0.219992 0.313423 0 0.205846
0.151552 0.352034 0 0.204996
0.075776 0.377026 -3.46945e-18 0.204242
0.350249 0.159528 0 0.216493
0 0.385557 0 0.203715
0.350249 0.169001 3.46945e-18 0.216393
0.288433 0.264688 0 0.211004
0.350249 0.178818 3.46945e-18 0.216267
0.219992 0.328484 0 0.205288
0.350249 0.188991 0 0.216114
0.151552 0.368496 0 0.204167
0.288433 0.27798 3.70071e-18 0.210588
0.075776 0.394396 -3.46945e-18 0.203188
0.350249 0.199535 3.46945e-18 0.215932
7.47806e-17 0.403236 0 0.202626
0.219992 0.344091 -3.46945e-18 0.204673
0.350249 0.21046 3.46945e-18 0.215718
0.288433 0.291753 0 0.210138
0.412065 9.08189e-19 3.08149e-33 0.220902
0.412065 0.00368111 3.08149e-33 0.220922
0.412065 0.00749587 3.08149e-33 0.220975
0.412065 0.0114491 0 0.221048
0.412065 0.0155459 0 0.221129
0.412065 0.0197915 0 0.221214
0.412065 0.0241911 -3.08149e-33 0.221303
0.412065 0.0264709 0 0.221349
0.412065 0.0287506 0 0.221395
0.412065 0.0334755 3.08149e-33 0.221488
0.412065 0.038372 3.08149e-33 0.221584
0.151552 0.385557 0 0.203291
0.412065 0.0434463 0 0.22168
0.350249 0.221782 3.46945e-18 0.215471
0.412065 0.0487048 0 0.221777
0.412065 0.0541543 0 0.221873
0.412065 0.0569779 0 0.22192
0.412065 0.0598016 0 0.221967
0.412065 0.0656539 3.08149e-33 0.222057
0.412065 0.0717187 3.08149e-33 0.222141
0.075776 0.412396 -3.46945e-18 0.202063
0.412065 0.0780037 -2.31298e-18 0.222209
0.288433 0.306027 0 0.209648
0.412065 0.0845169 2.31112e-33 0.222252
0.350249 0.233515 0 0.215189
0 0.421557 0 0.201476
0.412065 0.0912666 1.54074e-33 0.22227
0.219992 0.360265 0 0.204003
0.412065 0.0982613 0 0.222269
0.412065 0.10551 0 0.222252
0.412065 0.113022 -2.31298e-18 0.222219
0.350249 0.245675 3.46945e-18 0.214871
0.412065 0.120806 0 0.222172
0.151552 0.403236 0 0.202352
0.288433 0.320819 0 0.20911
0.412065 0.128874 -2.31298e-18 0.222113
0.412065 0.137234 0 0.222041
0.350249 0.258275 3.46945e-18 0.214513
0.219993 0.377026 0 0.203284
0.412065 0.145897 -2.31298e-18 0.221953
0.075776 0.43105 -3.46945e-18 0.200888
0.412065 0.154876 -2.31298e-18 0.221845
0 0.440544 0 0.20028
0.288433 0.336148 0 0.20852
0.350249 0.271334 0 0.214115
0.412065 0.16418 -2.31298e-18 0.221716
0.412065 0.173822 -2.31298e-18 0.221565
0.151552 0.421557 0 0.201353
0.412065 0.183814 -2.31298e-18 0.22139
0.350249 0.284866 3.46945e-18 0.213678
0.219992 0.394397 -3.46945e-18 0.202514
0.288433 0.352034 3.70071e-18 0.207875
0.412065 0.194169 0 0.221189
0.075776 0.450382 -3.46945e-18 0.199671
0.412065 0.2049 -2.31298e-18 0.22096
0 0.46022 0 0.199043
0.350249 0.29889 -3.46945e-18 0.2132
0.412065 0.21602 0 0.220701
0.151552 0.440544 0 0.200299
0.219993 0.412397 3.46945e-18 0.201685
0.467897 0.00184056 3.46945e-18 0.226876
0.467897 0.00558849 3.46945e-18 0.226901
0.288433 0.368496 0 0.207176
0.467897 0.00947248 0 0.22694
0.467897 0.0134975 3.46945e-18 0.226982
0.467897 0.0176687 0 0.227025
0.467897 0.0219913 0 0.227066
0.467897 0.0264709 0 0.227111
0.467897 0.031113 0 0.227159
0.467897 0.0359238 3.46945e-18 0.227211
0.467897 0.038372 0 0.227921
0.467897 0.0409092 0 0.227268
0.350249 0.313423 3.46945e-18 0.212679
0.467897 0.0460756 3.46945e-18 0.227329
0.467897 0.0514296 0 0.227393
0.412065 0.227544 -2.31298e-18 0.220411
0.467897 0.0569779 0 0.227459
0.467897 0.0627277 3.46945e-18 0.227525
0.467897 0.0686863 3.46945e-18 0.227589
0.467897 0.0748612 0 0.227636
0.467897 0.0812603 0 0.227644
0.467897 0.0878917 0 0.227615
0.075776 0.470415 0 0.198412
0.412065 0.239487 -2.31298e-18 0.220086
0.467897 0.0947639 -3.46945e-18 0.227567
0.467897 0.101886 0 0.227509
0.350249 0.328483 3.46945e-18 0.212111
0.467897 0.109266 0 0.22744
0 0.48061 0 0.197759
0.288433 0.385557 0 0.206423
0.467897 0.116914 -3.46945e-18 0.227357
0.412065 0.251863 -2.31298e-18 0.219724
0.219992 0.43105 -3.46945e-18 0.200795
0.467897 0.12484 0 0.227258
0.151552 0.46022 0 0.199192
0.467897 0.133054 0 0.227142
0.467897 0.141566 0 0.227013
0.412065 0.264688 -2.31298e-18 0.219324
0.350249 0.344091 0 0.211492
0.467897 0.150387 3.46945e-18 0.22687
0.467897 0.154876 0 0.227572
0.467897 0.159528 0 0.226712
0.288433 0.403236 0 0.205611
0.075776 0.491175 0 0.197104
0.412065 0.27798 -2.31298e-18 0.218883
0.467897 0.169001 0 0.226535
0.467897 0.178818 3.46945e-18 0.226338
0.219992 0.450382 -3.46945e-18 0.19984
7.47806e-17 0.501741 0 0.196425
0.350249 0.360265 0 0.210818
0.151552 0.48061 3.70071e-18 0.198029
0.467897 0.188992 0 0.226118
0.412065 0.291753 0 0.2184
0.467897 0.199534 -3.46945e-18 0.225874
0.288433 0.421557 0 0.204736
0.467897 0.21046 0 0.225604
0.412065 0.306027 0 0.217873
0.350249 0.377026 -3.46945e-18 0.210086
0.467897 0.221782 -3.46945e-18 0.225305
0.075776 0.51269 3.46945e-18 0.195744
0.219992 0.470415 3.46945e-18 0.198822
0.412065 0.320819 -2.31298e-18 0.217299
0.467897 0.233515 3.46945e-18 0.224974
7.47806e-17 0.523639 0 0.195037
0.523729 0 0 0.234026
0.523729 0.00368111 0 0.234036
0.523729 0.00749587 0 0.234063
0.523729 0.0114491 0 0.234095
0.523729 0.0155459 0 0.234126
0.523729 0.0197915 3.08149e-33 0.234152
0.151552 0.501741 0 0.196806
0.523729 0.0241911 0 0.234175
0.523729 0.0287506 0 0.2342
0.523729 0.0334755 0 0.234228
0.523729 0.038372 -3.08149e-33 0.234259
0.523729 0.0434463 0 0.234294
0.523729 0.0487048 0 0.234331
0.523729 0.0541543 0 0.234372
0.288433 0.440544 0 0.203796
0.523729 0.0598016 0 0.234414
0.350249 0.394397 0 0.209294
0.523729 0.0656539 0 0.234456
0.467897 0.245675 0 0.224609
0.523729 0.0717187 0 0.234483
0.523729 0.0780037 0 0.234476
0.523729 0.0845169 0 0.234429
0.523729 0.0912666 0 0.234356
0.412065 0.336148 0 0.216673
0.523729 0.0982613 0 0.234271
0.523729 0.10551 -2.31298e-18 0.234176
0.467897 0.258275 0 0.224208
0.523729 0.113022 0 0.234068
0.523729 0.120806 -3.08149e-33 0.233946
0.219992 0.491176 3.46945e-18 0.197738
0.523729 0.12484 0 0.233877
0.523729 0.128874 -2.31298e-18 0.233808
0.075776 0.534986 3.46945e-18 0.194329
0.467897 0.271334 3.46945e-18 0.223767
0.350249 0.412396 3.46945e-18 0.208439
0.523729 0.137234 0 0.233654
0.412065 0.352034 -2.31298e-18 0.215993
0.288433 0.46022 0 0.202788
0.523729 0.145897 0 0.233485
0.151552 0.523639 0 0.195515
0.495813 0.227544 -1.54074e-33 0.229011
0.523729 0.154876 -3.08149e-33 0.233298
0 0.546332 0 0.193593
0.523729 0.159528 0 0.233196
0.467897 0.284867 0 0.223283
0.523729 0.16418 -2.31298e-18 0.233093
0.523729 0.173822 0 0.232867
0.412065 0.368496 0 0.215256
0.523729 0.183814 0 0.232619
0.467897 0.29889 3.46945e-18 0.222754
0.350249 0.431051 0 0.207518
0.219993 0.51269 3.46945e-18 0.196579
0.523729 0.194169 0 0.232345
0.288433 0.48061 0 0.201709
0.523729 0.2049 0 0.232045
0.467897 0.313423 0 0.222177
0.075776 0.55809 0 0.192855
0.412065 0.385557 0 0.214459
0.523729 0.21602 -3.08149e-33 0.231717
0.151552 0.546332 0 0.194153
0 0.569849 0 0.192086
0.350249 0.450382 3.46945e-18 0.206527
0.467897 0.328483 -3.46945e-18 0.22155
0.574156 0.00184055 0 0.240707
0.574156 0.00558849 0 0.240724
0.574156 0.00947248 3.46945e-18 0.240749
0.574156 0.0134975 -3.46945e-18 0.240775
0.574157 0.0176687 3.46945e-18 0.240789
0.574156 0.0219913 0 0.240795
0.574156 0.0264708 0 0.240799
0.574157 0.031113 3.46945e-18 0.240806
0.574156 0.0359237 3.46945e-18 0.240814
0.574157 0.0409092 3.46945e-18 0.240824
0.523729 0.239487 0 0.230964
0.574156 0.0460755 -3.46945e-18 0.240837
0.574156 0.0514296 0 0.240853
0.412065 0.403236 0 0.213598
0.574157 0.0569779 0 0.240873
0.574156 0.0627277 0 0.240894
0.574156 0.0686863 0 0.24091
0.219992 0.534985 0 0.195336
0.288433 0.501741 3.70071e-18 0.200556
0.574156 0.0748612 0 0.240896
0.574156 0.0812603 3.46945e-18 0.240832
0.467897 0.344091 0 0.220868
0.574156 0.0878917 0 0.240734
0.523729 0.251863 0 0.230535
0.574156 0.0947639 -3.46945e-18 0.240624
0.574156 0.101886 3.46945e-18 0.240505
0.574156 0.109266 -3.46945e-18 0.240374
0.574156 0.116914 3.46945e-18 0.240229
0.412065 0.416977 1.54074e-33 0.212902
0.350249 0.470415 0 0.205462
0.523729 0.264688 0 0.230067
0.075776 0.582034 0 0.191316
0.574156 0.12484 3.46945e-18 0.240071
0.574156 0.133054 0 0.239896
0.412065 0.421557 3.08149e-33 0.21267
0.151552 0.569849 0 0.192716
0.467897 0.360265 -3.46945e-18 0.220129
0.574156 0.141565 -3.46945e-18 0.239705
0.523729 0.27798 0 0.229558
0.574156 0.150386 0 0.239495
0 0.594219 0 0.190512
0.574157 0.159528 0 0.239266
0.574156 0.16418 0 0.239796
0.288433 0.523639 -9.25154e-19 0.199322
0.574156 0.169001 -3.46945e-18 0.239015
0.523729 0.291753 0 0.229005
0.219993 0.558091 3.46945e-18 0.194008
0.467897 0.377027 -3.46945e-18 0.219331
0.574156 0.178818 0 0.238742
0.412065 0.440544 -2.31298e-18 0.211672
0.350249 0.491175 3.46945e-18 0.20432
0.574156 0.188992 0 0.238443
0.523729 0.306027 2.31298e-18 0.228404
0.574156 0.199534 0 0.238118
0.574157 0.21046 -3.46945e-18 0.237764
0.075776 0.606847 0 0.189706
0.467897 0.394397 0 0.218468
0.151552 0.594219 0 0.1912
0.523729 0.320819 0 0.227754
0.574156 0.221782 -3.46945e-18 0.237379
0.412065 0.46022 -2.31298e-18 0.210601
0.288433 0.546332 0 0.198002
0 0.619475 0 0.188866
0.574156 0.233515 3.46945e-18 0.236961
0.350249 0.51269 0 0.203098
0.219992 0.582034 3.46945e-18 0.192591
0.523729 0.336148 0 0.227051
0.467897 0.412396 -3.46945e-18 0.217539
0.574156 0.245675 3.46945e-18 0.236508
0.624584 0 0 0.248663
0.624584 0.00368111 0 0.248671
0.624584 0.00749587 0 0.248691
0.624584 0.0114491 0 0.248716
0.624584 0.0155459 0 0.248735
0.624584 0.0197915 0 0.248739
0.624584 0.0241911 3.08149e-33 0.248734
0.624584 0.0287506 0 0.248725
0.624584 0.0334755 0 0.248718
0.624584 0.038372 0 0.248713
0.624584 0.0434463 0 0.248708
0.624584 0.0487048 0 0.248705
0.624584 0.0541543 0 0.248703
0.624584 0.0598016 0 0.248702
0.624584 0.0656539 0 0.248696
0.624584 0.0717187 0 0.248665
0.624584 0.0780037 0 0.248592
0.574157 0.258275 -3.46945e-18 0.236017
0.624584 0.0845169 0 0.248482
0.523729 0.352034 0 0.226292
0.624584 0.0912666 0 0.248351
0.624584 0.0982613 0 0.248209
0.412065 0.48061 -2.31298e-18 0.209452
0.624584 0.10551 0 0.248054
0.624584 0.113022 -2.31298e-18 0.247884
0.574156 0.271334 -3.46945e-18 0.235486
0.624584 0.120806 0 0.247699
0.467897 0.43105 3.46945e-18 0.21654
0.075776 0.632561 0 0.188022
0.624584 0.128874 0 0.247498
0.151552 0.619475 0 0.189601
0.288433 0.569849 0 0.196593
0.350249 0.534985 0 0.20179
0.624584 0.137234 -2.31298e-18 0.247278
0.523729 0.368496 0 0.225473
0.574156 0.284867 0 0.234912
0.624584 0.145897 0 0.24704
0.467897 0.440544 0 0.216601
0.624584 0.154876 0 0.246781
0.219992 0.606847 0 0.191083
0 0.645647 0 0.187141
0.624584 0.16418 -3.08149e-33 0.2465
0.574156 0.29889 3.46945e-18 0.234292
0.624584 0.173822 0 0.246195
0.412065 0.501741 -2.31298e-18 0.208222
0.467897 0.450382 -3.46945e-18 0.215467
0.523729 0.385557 -3.08149e-33 0.224591
0.624584 0.183814 0 0.245864
0.624584 0.194169 0 0.245507
0.574157 0.313423 -3.46945e-18 0.233623
0.624584 0.2049 0 0.24512
0.350249 0.558091 0 0.200394
0.288433 0.594219 0 0.195091
0.624584 0.21602 0 0.244702
0.523729 0.403236 -3.70071e-18 0.223642
0.574156 0.328483 -3.46945e-18 0.232903
0.151552 0.645647 0 0.187913
0.467897 0.470415 0 0.214317
0.075776 0.659208 0 0.186256
0.624584 0.227544 0 0.244251
0.412065 0.523639 -2.31298e-18 0.206906
0.523729 0.41545 -1.54074e-33 0.222962
0.624584 0.239487 3.70071e-18 0.243765
0.574156 0.344091 3.46945e-18 0.232127
0.219992 0.632561 0 0.18948
0.67013 0.00184055 -3.46945e-18 0.256132
0.67013 0.00558849 -3.46945e-18 0.256147
0.67013 0.00947248 3.46945e-18 0.256171
0.67013 0.0134975 -3.46945e-18 0.256196
0.67013 0.0176687 3.46945e-18 0.256206
0.67013 0.0219913 0 0.256196
0.67013 0.0264708 0 0.256175
0.67013 0.031113 0 0.256154
0.67013 0.0359237 0 0.256134
0.67013 0.0409092 3.46945e-18 0.256114
0.67013 0.0460755 3.46945e-18 0.256095
0.67013 0.0514296 0 0.256076
0.523729 0.421557 3.08149e-33 0.222623
0.67013 0.0569779 0 0.256055
0 0.67277 0 0.185332
0.67013 0.0627277 -3.46945e-18 0.256033
0.624584 0.251863 0 0.243241
0.67013 0.0686863 0 0.255994
0.67013 0.0748612 0 0.255912
0.67013 0.0812603 0 0.255786
0.67013 0.0878918 0 0.255636
0.67013 0.0947639 0 0.255474
0.574156 0.360265 3.46945e-18 0.231293
0.67013 0.101886 0 0.255299
0.523729 0.431051 0 0.222076
0.624584 0.264688 0 0.242676
0.467897 0.491175 3.46945e-18 0.213085
0.67013 0.109266 3.46945e-18 0.255108
0.350249 0.582034 0 0.198905
0.67013 0.116914 0 0.254901
0.67013 0.12484 0 0.254676
0.67013 0.133054 0 0.254433
0.288433 0.619475 0 0.193493
0.624584 0.27798 2.31298e-18 0.242069
0.412065 0.546332 -2.31298e-18 0.205501
0.523729 0.440544 -3.08149e-33 0.22153
0.67013 0.141566 0 0.254169
0.685312 0.0241911 -7.70372e-34 0.259454
0.685312 0.0434463 -7.70372e-34 0.25934
0.67013 0.150386 0 0.253884
0.574157 0.377027 -3.46945e-18 0.230396
0.67013 0.159528 -3.46945e-18 0.253577
0.624584 0.291753 0 0.241416
0.151552 0.67277 0 0.186134
0.075776 0.686823 0 0.184404
0.67013 0.169001 -3.46945e-18 0.253245
0.67013 0.178818 0 0.252887
0.467897 0.51269 0 0.211768
0.685312 0.113022 -7.70372e-34 0.258108
0.219992 0.659208 0 0.187779
0.624584 0.306027 0 0.240715
0.67013 0.188992 0 0.252502
0.574157 0.394397 0 0.229433
0.523729 0.46022 0 0.220359
0.685312 0.137234 -7.70372e-34 0.257357
0.67013 0.199535 0 0.252087
0.350249 0.606847 0 0.197318
0 0.700877 0 0.183434
0.624584 0.320819 0 0.239962
0.67013 0.21046 0 0.251641
0.412065 0.569849 -2.31298e-18 0.204002
0.67013 0.221782 0 0.251161
0.574156 0.412396 0 0.2284
0.288433 0.645647 0 0.191794
0.624584 0.336148 0 0.239154
0.67013 0.233516 -3.46945e-18 0.250646
0.467897 0.534986 0 0.210361
0.523729 0.48061 0 0.219106
0.624584 0.344091 0 0.23872
0.67013 0.245675 0 0.250093
0.715676 4.54095e-19 0 0.264781
0.715676 0.00368111 -9.25187e-19 0.264788
0.715676 0.00749587 -9.25187e-19 0.264807
0.715676 0.0114491 -9.25187e-19 0.264831
0.715676 0.0155459 -9.25187e-19 0.264848
0.715676 0.0197915 -9.25187e-19 0.264841
0.715676 0.0241911 -9.25187e-19 0.264813
0.715676 0.0287506 0 0.264776
0.715676 0.0334755 0 0.264737
0.715676 0.038372 -9.25187e-19 0.264697
0.624584 0.352034 3.08149e-33 0.238287
0.715676 0.0434463 -9.25187e-19 0.264656
0.151552 0.700877 0 0.184257
0.715676 0.0487048 0 0.264614
0.715676 0.0541543 0 0.264571
0.574156 0.43105 3.46945e-18 0.227293
0.715676 0.0598016 -9.25187e-19 0.264525
0.67013 0.258275 3.46945e-18 0.2495
0.715676 0.0656539 -9.25187e-19 0.264466
0.715676 0.0717187 -9.25187e-19 0.264373
0.075776 0.715441 0 0.18246
0.715676 0.0780037 0 0.264234
0.715676 0.0845169 0 0.264065
0.219992 0.686824 0 0.185975
0.715676 0.0912666 0 0.263877
0.715676 0.0982613 0 0.263675
0.67013 0.271334 3.46945e-18 0.248865
0.350249 0.632561 -3.46945e-18 0.195629
0.412065 0.594219 -2.31298e-18 0.202403
0.715676 0.10551 0 0.263457
0.715676 0.113022 0 0.263221
0.624584 0.368496 0 0.237359
0.523729 0.501741 3.70071e-18 0.217767
0.715676 0.120806 0 0.262966
0.715676 0.128874 0 0.262691
0.67013 0.284867 0 0.248184
0.467897 0.558091 3.46945e-18 0.208859
0.715676 0.137234 0 0.262396
0.574156 0.450382 3.46945e-18 0.226108
0 0.730005 0 0.181442
0.715676 0.145897 0 0.262078
0.288433 0.67277 0 0.18999
0.715676 0.154876 0 0.261736
0.67013 0.29889 -3.46945e-18 0.247454
0.624584 0.385557 0 0.236365
0.715676 0.16418 0 0.26137
0.715676 0.173822 0 0.260976
0.715676 0.183814 0 0.260555
0.67013 0.313423 -3.46945e-18 0.246674
0.523729 0.523639 3.70071e-18 0.216336
0.715676 0.194169 0 0.260103
0.574156 0.470415 0 0.224841
0.624584 0.403236 -3.70071e-18 0.235301
0.743101 0.0241911 -7.70372e-34 0.270577
0.412065 0.619475 -2.31298e-18 0.200701
0.715676 0.2049 0 0.25962
0.151552 0.730005 0 0.182279
0.67013 0.328483 0 0.245839
0.350249 0.659208 0 0.193834
0.467897 0.582034 0 0.207257
0.715676 0.21602 0 0.259102
0.219992 0.715441 0 0.184065
0.075776 0.745098 0 0.180419
0.715676 0.227544 0 0.258549
0.67013 0.344091 0 0.244946
0.624584 0.421557 0 0.234163
0.743101 0.128874 -7.70372e-34 0.268079
0.715676 0.239487 0 0.257958
0.574156 0.491175 3.46945e-18 0.223488
0.756814 0.00184056 -3.46945e-18 0.272941
0.523729 0.546332 0 0.21481
0.756813 0.00558849 -3.46945e-18 0.272955
0.756813 0.00947248 -3.46945e-18 0.272978
0.756813 0.0134975 -3.46945e-18 0.273004
0.756814 0.0155459 0 0.273513
0.756814 0.0176687 0 0.273008
0.756814 0.0219913 3.46945e-18 0.272979
0.756814 0.0264709 3.46945e-18 0.27293
0.756813 0.0311131 3.46945e-18 0.272875
0.756813 0.0359238 -3.46945e-18 0.272817
0.288433 0.700877 0 0.188077
0.756813 0.0409092 -3.46945e-18 0.272756
0.756813 0.0460755 0 0.272693
0.756813 0.0514296 0 0.27263
0.715676 0.251863 0 0.257326
0.756814 0.0569779 0 0.272564
0.756814 0.0627277 0 0.272493
0.756814 0.0686863 0 0.272393
0 0.76019 0 0.179349
0.756813 0.0748612 0 0.272243
0.67013 0.360265 -3.46945e-18 0.243991
0.756814 0.0812603 0 0.272052
0.756814 0.0878917 0 0.271843
0.756813 0.0947639 -3.46945e-18 0.271618
0.715676 0.264688 0 0.256652
0.756814 0.101886 -3.46945e-18 0.271376
0.624584 0.440544 0 0.232948
0.756814 0.109266 0 0.271115
0.756814 0.116914 0 0.270834
0.412065 0.645647 0 0.19889
0.467897 0.606847 -3.46945e-18 0.20555
0.756814 0.120806 0 0.271092
0.756813 0.12484 3.46945e-18 0.270532
0.715676 0.27798 -9.25187e-19 0.255932
0.756813 0.133054 -3.46945e-18 0.270209
0.67013 0.377027 0 0.242972
0.756814 0.137234 0 0.270431
0.574157 0.51269 3.46945e-18 0.222042
0.756813 0.141566 3.46945e-18 0.269862
0.685312 0.352034 -7.70372e-34 0.24713
0.743101 0.2049 -7.70372e-34 0.264736
0.350249 0.686824 0 0.191927
0.756813 0.150386 -3.46945e-18 0.269491
0.756814 0.154876 0 0.269675
0.715676 0.291753 3.70074e-18 0.255164
0.756814 0.159528 3.46945e-18 0.269094
0.523729 0.569849 0 0.213182
0.72743 0.264688 0 0.258761
0.756814 0.16418 0 0.269258
0.151552 0.76019 3.70071e-18 0.180194
0.756813 0.169001 -3.46945e-18 0.26867
0.624584 0.46022 0 0.23165
0.219993 0.745098 0 0.182045
0.67013 0.394396 -3.46945e-18 0.241883
0.756813 0.178818 -3.46945e-18 0.268216
0.715676 0.306027 -9.25187e-19 0.254346
0.075776 0.775831 0 0.178274
0.756814 0.188992 0 0.267732
0.756814 0.199535 0 0.267216
0.715676 0.320819 0 0.253473
0.574156 0.534986 3.46945e-18 0.2205
0.288433 0.730005 0 0.18605
0.756814 0.21046 3.46945e-18 0.266666
0.467897 0.632561 0 0.203734
0.67013 0.412396 -3.46945e-18 0.240722
0.624584 0.48061 -3.08149e-33 0.230264
0.756814 0.221782 0 0.266079
0.412065 0.67277 -2.31298e-18 0.196966
0.715676 0.336148 0 0.252543
0 0.791472 0 0.17715
0.756813 0.233515 3.46945e-18 0.265454
0.523729 0.594219 0 0.211448
0.624584 0.487654 1.54074e-33 0.229772
0.756814 0.245675 0 0.264789
0.350249 0.715441 3.46945e-18 0.189904
0.67013 0.43105 3.46945e-18 0.239482
0.715676 0.352034 -9.25187e-19 0.251551
0.797951 9.08189e-19 0 0.282112
0.797951 0.00368111 2.31298e-18 0.282119
0.797951 0.00749587 2.31298e-18 0.282139
0.797951 0.0114491 2.31298e-18 0.282164
0.797951 0.0141803 7.70372e-34 0.282173
0.797951 0.0155459 0 0.282178
0.797951 0.0169611 7.70372e-34 0.282171
0.797951 0.0197915 -3.08149e-33 0.282158
0.797951 0.0219913 0 0.282131
0.797951 0.0241911 3.08149e-33 0.282105
0.797951 0.0264709 0 0.282069
0.797951 0.0287506 -3.08149e-33 0.282033
0.797951 0.0334755 2.31298e-18 0.281951
0.797951 0.038372 2.31298e-18 0.281864
0.797951 0.0434463 2.31298e-18 0.281772
0.797951 0.0487048 2.31298e-18 0.281677
0.756814 0.258275 -3.46945e-18 0.264081
0.797951 0.0541543 2.31298e-18 0.281579
0.797951 0.0598016 2.31298e-18 0.281473
0.797951 0.0656539 2.31298e-18 0.281346
0.574156 0.55809 3.46945e-18 0.218856
0.624584 0.501741 3.70071e-18 0.228787
0.797951 0.0717187 2.31298e-18 0.281177
0.797951 0.0780037 2.31298e-18 0.280963
0.797951 0.0845169 0 0.28072
0.797951 0.0912666 0 0.280459
0.797951 0.0982613 -3.08149e-33 0.280179
0.756814 0.271334 3.46945e-18 0.263328
0.797951 0.10551 0 0.27988
0.715676 0.368496 -9.25187e-19 0.250496
0.151552 0.791472 3.70071e-18 0.177997
0.797951 0.113022 0 0.27956
0.219992 0.775831 3.46945e-18 0.179909
0.797951 0.118211 7.70372e-34 0.279333
0.770526 0.239487 -3.08149e-33 0.267961
0.797951 0.120806 0 0.279219
0.67013 0.450382 -3.46945e-18 0.23816
0.797951 0.128874 3.08149e-33 0.278854
0.467897 0.659208 0 0.201801
0.756814 0.284867 -3.46945e-18 0.262526
0.743101 0.320819 -7.70372e-34 0.258228
0.797951 0.137234 0 0.278466
0.797951 0.141566 0 0.27826
0.797951 0.145897 0 0.278053
0.523729 0.619475 0 0.209602
0.075776 0.807681 -3.46945e-18 0.176021
0.797951 0.150387 0 0.277833
0.797951 0.154876 9.25187e-19 0.277613
0.715676 0.385557 0 0.249371
0.412065 0.700877 -2.31298e-18 0.194922
0.288433 0.76019 0 0.183905
0.756814 0.29889 0 0.261675
0.797951 0.16418 0 0.277146
0.624584 0.523639 3.70071e-18 0.227212
0.797951 0.167394 7.70372e-34 0.27698
0.797951 0.173822 0 0.276649
0.574156 0.582034 0 0.217104
0.67013 0.470415 0 0.236751
0.797951 0.183814 -3.08149e-33 0.276122
0.756814 0.313423 0 0.260769
0.797951 0.194169 0 0.275562
0.715676 0.403236 3.70074e-18 0.248174
0.151552 0.807681 0 0.17684
0.797951 0.197746 -7.70372e-34 0.275364
0.350249 0.745097 0 0.18776
0.797951 0.2049 3.08149e-33 0.274968
0 0.823889 0 0.17484
0.756813 0.328483 3.46945e-18 0.259807
0.797951 0.21046 0 0.274653
0.797951 0.21602 -3.08149e-33 0.274338
0.797951 0.223703 7.70372e-34 0.273893
0.797951 0.227544 0 0.27367
0.624584 0.546332 0 0.225534
0.715676 0.421557 -9.25187e-19 0.2469
0.67013 0.491175 3.46945e-18 0.23525
0.797951 0.231525 7.70372e-34 0.273434
0.467897 0.686823 0 0.199748
0.523729 0.645647 0 0.207638
0.756813 0.344091 0 0.258785
0.822721 0.120806 7.70372e-34 0.284815
0.797951 0.239487 -3.08149e-33 0.272962
0.822721 0.137234 7.70372e-34 0.283994
0.835106 0.00184055 0 0.29081
0.835106 0.00558849 0 0.290825
0.835106 0.00947248 -3.46945e-18 0.290851
0.835106 0.0134975 -3.46945e-18 0.290878
0.835106 0.0176687 -3.46945e-18 0.290874
0.835106 0.0219913 0 0.290825
0.574156 0.606847 0 0.215239
0.835106 0.0241911 0 0.291107
0.835106 0.0264709 0 0.290743
0.822721 0.145897 -7.70372e-34 0.283545
0.835106 0.0311131 -3.46945e-18 0.290642
0.835106 0.0359238 -3.46945e-18 0.290532
0.835106 0.0409091 -3.46945e-18 0.290415
0.835106 0.0460755 0 0.290292
0.835106 0.0514296 -3.46945e-18 0.290164
0.797951 0.251863 2.31298e-18 0.272212
0.835106 0.0541543 0 0.290408
0.835106 0.0569779 3.46945e-18 0.290031
0.219992 0.807681 0 0.177654
0.822721 0.154876 7.70372e-34 0.283069
0.835106 0.0627277 0 0.289884
0.151552 0.823889 0 0.175683
0.797951 0.255069 -1.54074e-33 0.272013
0.835106 0.0686863 0 0.289699
0.756814 0.360265 0 0.257698
0.412065 0.730005 0 0.192754
0.835106 0.0748612 -3.46945e-18 0.289461
0.822721 0.16418 7.70372e-34 0.282564
0.835106 0.0812603 -3.46945e-18 0.289187
0.835106 0.0878917 0 0.288894
0.715676 0.440544 0 0.245544
0.835106 0.094764 0 0.288582
0.797951 0.264688 0 0.271417
0.835106 0.101886 0 0.288249
0.835106 0.109266 0 0.287894
0.288433 0.791472 0 0.181636
0.835106 0.116914 0 0.287516
0.67013 0.51269 3.46945e-18 0.233651
0.797951 0.274657 6.16298e-33 0.270786
0.075776 0.840686 -3.46945e-18 0.173653
0.835106 0.12484 3.46945e-18 0.287115
0.797951 0.27798 -3.08149e-33 0.270575
0.624584 0.569849 0 0.223748
0.756813 0.377026 0 0.256544
0.835106 0.133054 -3.46945e-18 0.28669
0.835106 0.141565 0 0.286238
0.835107 0.150387 0 0.28576
0.797951 0.291753 2.31298e-18 0.269684
0.835106 0.159528 -3.46945e-18 0.285254
0.715676 0.46022 -9.25187e-19 0.244101
0.816529 0.239487 -1.54074e-33 0.276816