# UMean  POINT_DATA 63831
# x  y  z  UMean_x  UMean_y  UMean_z
0 0.5 3.39583e-17 0.996195 0 0.0871557
0 0.5 -0.00617931 0.996195 0 0.0871557
0 0.5 0.00617931 0.996195 0 0.0871557
0.0124865 0.5 0.00617931 0.99616 0.000939352 0.0872336
0.0124865 0.5 -0.00617931 0.996159 0.000939269 0.0871123
0 0.5 -0.0688207 0.996195 0 0.0871557
0 0.5 0.0688207 0.996195 0 0.0871557
0.0124865 0.5 0.0688207 0.99616 0.000939352 0.0872336
0.0124865 0.5 -0.0688207 0.996159 0.000939269 0.0871123
0 0.5 0.075 0.996195 0 0.0871557
0 0.5 -0.075 0.996195 0 0.0871557
0 0.5 -0.0811793 0.996195 0 0.0871557
0 0.5 0.0811793 0.996195 0 0.0871557
0.0124865 0.5 0.0811793 0.996158 0.000935982 0.0873604
0.0124865 0.5 -0.0811793 0.996158 0.000935752 0.0869853
0.075776 0.5 0.0375 0.995956 0.00569487 0.0876264
0.075776 0.5 -0.0375 0.995954 0.00569441 0.0868944
0.075776 0.5 0.1125 0.995945 0.00567425 0.0883919
0.075776 0.5 -0.1125 0.995943 0.00567291 0.0861274
0 0.5 -0.143821 0.996195 0 0.0871557
0 0.5 0.143821 0.996195 0 0.0871557
0.0124865 0.5 0.143821 0.996158 0.000935982 0.0873604
0.0124865 0.5 -0.143821 0.996158 0.000935752 0.0869853
0 0.5 0.15 0.996195 0 0.0871557
0 0.5 -0.15 0.996195 0 0.0871557
0.151149 0.5 2.20565e-18 0.994706 0.00958875 0.0872851
0 0.5 -0.156179 0.996195 0 0.0871557
0 0.5 0.156179 0.996195 0 0.0871557
0.0124865 0.5 0.156179 0.99616 0.000928755 0.0874821
0.0124865 0.5 -0.156179 0.99616 0.000928305 0.0868629
0.151149 0.5 0.075 0.994711 0.00957301 0.0886232
0.151149 0.5 -0.075 0.994705 0.00956852 0.0859466
0.075776 0.5 0.1875 0.99596 0.00563043 0.0891269
0.075776 0.5 -0.1875 0.995957 0.00562786 0.085388
0.151149 0.5 0.15 0.994737 0.00952144 0.0899443
0.151149 0.5 -0.15 0.994728 0.00951275 0.0846227
0 0.5 -0.218821 0.996195 0 0.0871557
0 0.5 0.218821 0.996195 0 0.0871557
0.0124865 0.5 0.218821 0.99616 0.000928755 0.0874821
0.0124865 0.5 -0.218821 0.99616 0.000928305 0.0868629
0.219992 0.5 0.0375 0.993543 0.0132296 0.0882636
0.219992 0.5 -0.0375 0.993537 0.013226 0.0863525
0 0.5 0.225 0.996195 0 0.0871557
0 0.5 -0.225 0.996195 0 0.0871557
0 0.5 -0.231179 0.996195 0 0.0871557
0 0.5 0.231179 0.996195 0 0.0871557
0.0124865 0.5 0.231179 0.996163 0.000918022 0.0875995
0.0124865 0.5 -0.231179 0.996163 0.000917431 0.0867451
0.219993 0.5 0.1125 0.993563 0.0131839 0.0901312
0.219993 0.5 -0.1125 0.993549 0.0131719 0.084485
0.151149 0.5 0.225 0.994795 0.00943527 0.0912272
0.151149 0.5 -0.225 0.994784 0.00942337 0.0833369
0.075776 0.5 0.2625 0.995977 0.00556525 0.0898362
0.075776 0.5 -0.2625 0.995972 0.00556196 0.0846764
0.288069 0.5 3.34766e-17 0.990527 0.016835 0.0872604
0.219992 0.5 0.1875 0.993642 0.0130903 0.0919738
0.219992 0.5 -0.1875 0.993626 0.0130724 0.0826374
0 0.5 0.293821 0.996195 0 0.0871557
0 0.5 -0.293821 0.996195 0 0.0871557
0.0124865 0.5 -0.293821 0.996163 0.000917431 0.0867451
0.0124865 0.5 0.293821 0.996163 0.000918022 0.0875995
0.288069 0.5 0.075 0.990561 0.016809 0.0897533
0.288069 0.5 -0.075 0.990549 0.0167954 0.0847681
0 0.5 0.3 0.996195 0 0.0871557
0 0.5 -0.3 0.996195 0 0.0871557
0 0.5 0.306179 0.996195 0 0.0871557
0 0.5 -0.306179 0.996195 0 0.0871557
0.0124865 0.5 0.306179 0.996167 0.000904296 0.08771
0.0124865 0.5 -0.306179 0.996166 0.000903543 0.0866339
0.288069 0.5 0.15 0.990666 0.0167188 0.0922043
0.288069 0.5 -0.15 0.990647 0.0166923 0.0823184
0.151149 0.5 0.3 0.994874 0.00931741 0.0924524
0.151149 0.5 -0.3 0.994859 0.00930274 0.0821096
0.219992 0.5 0.2625 0.993759 0.0129524 0.0937458
0.219992 0.5 -0.2625 0.993737 0.0129297 0.0808653
0.075776 0.5 0.3375 0.995999 0.00548178 0.0905049
0.075776 0.5 -0.3375 0.995992 0.00547765 0.0840035
0.350249 0.5 0.0375 0.987707 0.0202191 0.0887559
0.350249 0.5 -0.0375 0.987699 0.0202095 0.0856754
0.288069 0.5 0.225 0.990851 0.0165675 0.094588
0.288069 0.5 -0.225 0.990829 0.0165303 0.0799375
0.350249 0.5 0.1125 0.987807 0.0201481 0.091794
0.350249 0.5 -0.1125 0.987787 0.0201195 0.0826396
0 0.5 0.368821 0.996195 0 0.0871557
0 0.5 -0.368821 0.996195 0 0.0871557
0.0124865 0.5 0.368821 0.996167 0.000904296 0.08771
0.0124865 0.5 -0.368821 0.996166 0.000903543 0.0866339
0 0.5 0.375 0.996195 0 0.0871557
0 0.5 -0.375 0.996195 0 0.0871557
0 0.5 -0.381179 0.996195 0 0.0871557
0 0.5 0.381179 0.996195 0 0.0871557
0.0124865 0.5 0.381179 0.996172 0.000887652 0.0878128
0.0124865 0.5 -0.381179 0.99617 0.000886925 0.0865302
0.350249 0.5 0.1875 0.98802 0.0200001 0.0947764
0.350249 0.5 -0.1875 0.987996 0.0199542 0.0796644
0.219992 0.5 0.3375 0.99391 0.0127733 0.0954271
0.219992 0.5 -0.3375 0.993882 0.0127461 0.0791822
0.151149 0.5 0.375 0.994972 0.00917027 0.0936043
0.151149 0.5 -0.375 0.994952 0.00915339 0.0809546
0.411736 0.5 1.70099e-17 0.983414 0.0237218 0.0871032
0.288069 0.5 0.3 0.991107 0.0163596 0.0968654
0.288069 0.5 -0.3 0.991079 0.016313 0.0776658
0.411736 0.5 0.075 0.983493 0.0236866 0.0907895
0.411736 0.5 -0.075 0.983482 0.0236575 0.08342
0.075776 0.5 0.4125 0.996027 0.00538072 0.0911269
0.075776 0.5 -0.4125 0.996017 0.00537679 0.0833761
0.350249 0.5 -0.2625 0.988313 0.0197187 0.076806
0.350249 0.5 0.2625 0.988341 0.0197791 0.0976435
0.411736 0.5 0.15 0.983724 0.0235533 0.0944184
0.411736 0.5 -0.15 0.983708 0.0234965 0.0798021
0 0.5 -0.443821 0.996195 0 0.0871557
0 0.5 0.443821 0.996195 0 0.0871557
0.0124865 0.5 0.443821 0.996172 0.000887652 0.0878128
0.0124865 0.5 -0.443821 0.99617 0.000886925 0.0865302
0 0.5 0.45 0.996195 0 0.0871557
0 0.5 -0.45 0.996195 0 0.0871557
0 0.5 -0.456179 0.996195 0 0.0871557
0 0.5 0.456179 0.996195 0 0.0871557
0.0124865 0.5 0.456179 0.996177 0.000868496 0.0879067
0.0124865 0.5 -0.456179 0.996175 0.000867895 0.0864352
0.219992 0.5 -0.4125 0.994058 0.012525 0.077611
0.219993 0.5 0.4125 0.994092 0.0125556 0.0969971
0.411736 0.5 0.225 0.984111 0.0233266 0.0979401
0.411736 0.5 -0.225 0.984097 0.0232448 0.0762975
0.467897 0.5 0.0375 0.97938 0.0270262 0.0891458
0.467897 0.5 -0.0375 0.979374 0.0270067 0.0848489
0.288069 0.5 0.375 0.991425 0.0160993 0.0990087
0.288069 0.5 -0.375 0.991391 0.0160445 0.0755303
0.151149 0.5 -0.45 0.995064 0.00897771 0.0798853
0.151149 0.5 0.45 0.995087 0.00899591 0.0946699
0.467897 0.5 0.1125 0.97958 0.0269276 0.0934028
0.467897 0.5 -0.1125 0.979569 0.0268701 0.0806017
0.350249 0.5 0.3375 0.988758 0.0194918 0.100365
0.350249 0.5 -0.3375 0.988725 0.0194183 0.0740998
0.075776 0.5 -0.4875 0.996047 0.00526118 0.0828011
0.075776 0.5 0.4875 0.996058 0.00526433 0.0916951
0.467897 0.5 0.1875 0.979982 0.0267152 0.097569
0.467897 0.5 -0.1875 0.979974 0.026622 0.0764591
0.411736 0.5 0.3 0.984647 0.0230127 0.101302
0.411736 0.5 -0.3 0.984634 0.0229092 0.07296
0 0.5 -0.518821 0.996195 0 0.0871557
0 0.5 0.518821 0.996195 0 0.0871557
0.0124865 0.5 0.518821 0.996177 0.000868496 0.0879067
0.0124865 0.5 -0.518821 0.996175 0.000867895 0.0864352
0.523432 0.5 3.75966e-17 0.974099 0.0304987 0.0868315
0 0.5 0.525 0.996195 0 0.0871557
0 0.5 -0.525 0.996195 0 0.0871557
0.523432 0.5 0.075 0.97423 0.0304554 0.0917612
0.523432 0.5 -0.075 0.974231 0.0304034 0.08191
0 0.5 -0.531179 0.996195 0 0.0871557
0 0.5 0.531179 0.996195 0 0.0871557
0.0124865 0.5 0.531179 0.996183 0.000847207 0.0879908
0.0124865 0.5 -0.531179 0.996181 0.000846805 0.0863498
0.288069 0.5 0.45 0.991798 0.0157905 0.100991
0.288069 0.5 -0.45 0.99176 0.0157285 0.0735566
0.219992 0.5 -0.4875 0.994261 0.0122687 0.0761681
0.219992 0.5 0.4875 0.9943 0.012302 0.0984379
0.467897 0.5 -0.2625 0.980583 0.0262702 0.072485
0.467897 0.5 0.2625 0.980583 0.0263947 0.101571
0.350249 0.5 0.4125 0.989262 0.0191426 0.102901
0.350249 0.5 -0.4125 0.989224 0.0190576 0.0715808
0.523432 0.5 0.15 0.974622 0.0302751 0.0966157
0.523432 0.5 -0.15 0.974632 0.0301733 0.0770801
0.151149 0.5 0.525 0.995217 0.00879673 0.0956376
0.151149 0.5 -0.525 0.99519 0.00877797 0.0789128
0.411736 0.5 0.375 0.985315 0.0226193 0.104461
0.411736 0.5 -0.375 0.985303 0.0224963 0.0698342
0.075776 0.5 0.5625 0.996095 0.00513478 0.0922045
0.075776 0.5 -0.5625 0.996081 0.0051329 0.0822838
0.523432 0.5 0.225 0.975274 0.0299636 0.101322
0.523432 0.5 -0.225 0.9753 0.0298159 0.0724151
0.574156 0.5 0.0375 0.969109 0.0337959 0.0894583
0.574157 0.5 -0.0375 0.969113 0.0337631 0.0838911
0.467897 0.5 0.3375 0.981365 0.0259753 0.105363
0.467897 0.5 -0.3375 0.981373 0.0258237 0.0687383
0.574156 0.5 0.1125 0.969428 0.0336695 0.0949851
0.574156 0.5 -0.1125 0.969445 0.0335727 0.0783865
0 0.5 -0.593821 0.996195 0 0.0871557
0 0.5 0.593821 0.996195 0 0.0871557
0.0124865 0.5 0.593821 0.996183 0.000847207 0.0879908
0.0124865 0.5 -0.593821 0.996181 0.000846805 0.0863498
0.288069 0.5 0.525 0.992218 0.015437 0.102792
0.288069 0.5 -0.525 0.992176 0.0153691 0.0717658
0 0.5 0.6 0.996195 0 0.0871557
0 0.5 -0.6 0.996195 0 0.0871557
0.350249 0.5 0.4875 0.989841 0.018737 0.105225
0.350249 0.5 -0.4875 0.989798 0.0186416 0.0692768
0.523432 0.5 -0.3 0.976217 0.0293406 0.0679857
0.523432 0.5 0.3 0.976171 0.0295294 0.105806
0.219992 0.5 0.5625 0.994529 0.0120148 0.0997347
0.219992 0.5 -0.5625 0.994487 0.0119802 0.0748685
0.574156 0.5 0.1875 0.970066 0.0333885 0.100384
0.574157 0.5 -0.1875 0.970106 0.0332318 0.0730299
0 0.5 -0.606179 0.996195 0 0.0871557
0 0.5 0.606179 0.996195 0 0.0871557
0.0124865 0.5 0.606179 0.99619 0.000824187 0.0880645
0.0124865 0.5 -0.606179 0.996188 0.000824065 0.0862746
0.411736 0.5 0.45 0.986101 0.0221534 0.107375
0.411736 0.5 -0.45 0.986089 0.0220128 0.066958
0.151149 0.5 0.6 0.995358 0.00857543 0.0964986
0.151149 0.5 -0.6 0.995329 0.00855694 0.078046
0.467897 0.5 0.4125 0.982311 0.0254667 0.108886
0.467897 0.5 -0.4125 0.982324 0.0252899 0.0652664
0.624316 0.5 2.64545e-17 0.963041 0.0372737 0.0864658
0.624316 0.5 0.075 0.963228 0.0372239 0.0926933
0.624316 0.5 -0.075 0.963256 0.0371428 0.0802531
0.574156 0.5 -0.2625 0.971085 0.0327493 0.0679089
0.574157 0.5 0.2625 0.971015 0.0329614 0.105574
0.075776 0.5 0.6375 0.996136 0.00499437 0.0926509
0.075776 0.5 -0.6375 0.996122 0.00499416 0.0818283
0.624316 0.5 0.15 0.963812 0.0369948 0.0988262
0.624316 0.5 -0.15 0.963876 0.0368357 0.0741627
0.523432 0.5 0.375 0.977292 0.0289835 0.110006
0.523432 0.5 -0.375 0.977356 0.0287581 0.0638544
0.350249 0.5 -0.5625 0.990434 0.0181761 0.0672115
0.350249 0.5 0.5625 0.990479 0.0182801 0.107313
0.624316 0.5 0.225 0.964784 0.0365936 0.104765
0.624316 0.5 -0.225 0.964891 0.0363618 0.0682944
0.288069 0.5 0.6 0.992673 0.0150435 0.104393
0.288069 0.5 -0.6 0.992629 0.0149711 0.0701745
0.574157 0.5 0.3375 0.97225 0.0323991 0.110462
0.574157 0.5 -0.3375 0.97235 0.0321375 0.0630946
0.411736 0.5 0.525 0.986984 0.0216219 0.110013
0.411736 0.5 -0.525 0.986973 0.0214658 0.0643625
0 0.5 -0.668821 0.996195 0 0.0871557
0 0.5 0.668821 0.996195 0 0.0871557
0.0124865 0.5 0.668821 0.99619 0.000824187 0.0880645
0.0124865 0.5 -0.668821 0.996188 0.000824065 0.0862746
0.67013 0.5 0.0375 0.957268 0.0406012 0.0897154
0.67013 0.5 -0.0375 0.957288 0.0405524 0.0828194
0.219993 0.5 -0.6375 0.994729 0.0116631 0.0737233
0.219992 0.5 0.6375 0.994772 0.0116981 0.100876
0 0.5 0.675 0.996195 0 0.0871557
0 0.5 -0.675 0.996195 0 0.0871557
0.467897 0.5 -0.4875 0.983415 0.0246777 0.0621103
0.467897 0.5 0.4875 0.983397 0.0248771 0.112102
0.67013 0.5 0.1125 0.957721 0.040447 0.0965672
0.67013 0.5 -0.1125 0.957788 0.0403025 0.076004
0 0.5 -0.681179 0.996195 0 0.0871557
0 0.5 0.681179 0.996195 0 0.0871557
0.0124865 0.5 0.681179 0.996197 0.000799814 0.0881274
0.0124865 0.5 -0.681179 0.996195 0.0008 0.0862101
0.523432 0.5 0.45 0.978608 0.0283371 0.113868
0.523432 0.5 -0.45 0.978687 0.0280789 0.0600742
0.151149 0.5 0.675 0.995507 0.0083353 0.0972465
0.151149 0.5 -0.675 0.995477 0.00831782 0.0772913
0.624316 0.5 0.3 0.96612 0.0360311 0.110415
0.624316 0.5 -0.3 0.966274 0.0357329 0.0627416
0.67013 0.5 0.1875 0.958637 0.0400951 0.103255
0.67013 0.5 -0.1875 0.958762 0.03986 0.0693849
0.574156 0.5 0.4125 0.973741 0.0317151 0.114999
0.574156 0.5 -0.4125 0.973869 0.0314103 0.0586588
0.715434 0.5 3.51282e-17 0.950625 0.044085 0.0860245
0.075776 0.5 0.7125 0.99618 0.00484555 0.0930322
0.075776 0.5 -0.7125 0.996165 0.0048472 0.081437
0.715434 0.5 0.075 0.950874 0.0440298 0.0936074
0.715434 0.5 -0.075 0.950941 0.0439144 0.0784638
0.67013 0.5 0.2625 0.960002 0.0395551 0.10967
0.67013 0.5 -0.2625 0.960188 0.0392366 0.0630713
0.350249 0.5 -0.6375 0.991115 0.0176674 0.065402
0.350249 0.5 0.6375 0.991161 0.0177786 0.109145
0.411736 0.5 0.6 0.987941 0.0210327 0.112349
0.411736 0.5 -0.6 0.987932 0.0208633 0.0620715
0.624316 0.5 0.375 0.967787 0.0353211 0.115688
0.624316 0.5 -0.375 0.967986 0.034964 0.057585
0.715434 0.5 0.15 0.951677 0.0437506 0.101075
0.715434 0.5 -0.15 0.95182 0.0435238 0.0710604
0.467897 0.5 0.5625 0.984593 0.0242156 0.114976
0.467897 0.5 -0.5625 0.984616 0.0239964 0.0593014
0.288069 0.5 0.675 0.993153 0.0146155 0.105783
0.288069 0.5 -0.675 0.993108 0.0145401 0.0687943
0.523432 0.5 0.525 0.980085 0.0276012 0.117347
0.523432 0.5 -0.525 0.980178 0.0273139 0.0566865
0 0.5 -0.743821 0.996195 0 0.0871557
0 0.5 0.743821 0.996195 0 0.0871557
0.0124865 0.5 -0.743821 0.996195 0.0008 0.0862101
0.0124865 0.5 0.743821 0.996197 0.000799814 0.0881274
0.219992 0.5 0.7125 0.995026 0.0113561 0.101856
0.219992 0.5 -0.7125 0.994982 0.0113221 0.0727396
0.715434 0.5 0.225 0.953019 0.0432554 0.108296
0.715434 0.5 -0.225 0.953246 0.0429244 0.0639426
0 0.5 0.75 0.996195 0 0.0871557
0 0.5 -0.75 0.996195 0 0.0871557
0.67013 0.5 0.3375 0.961774 0.0388418 0.115713
0.67013 0.5 -0.3375 0.962024 0.0384476 0.0571676
0.574157 0.5 0.4875 0.975451 0.0309228 0.119119
0.574157 0.5 -0.4875 0.975602 0.030579 0.0546524
0 0.5 -0.756179 0.996195 0 0.0871557
0 0.5 0.756179 0.996195 0 0.0871557
0.0124865 0.5 0.756179 0.996205 0.000774542 0.0881794
0.0124865 0.5 -0.756179 0.996203 0.000775034 0.0861563
0.756813 0.5 0.0375 0.944258 0.0474467 0.0899351
0.756813 0.5 -0.0375 0.944301 0.0473795 0.0816506
0.151149 0.5 0.75 0.995661 0.00808009 0.097878
0.151149 0.5 -0.75 0.995631 0.0080642 0.0766522
0.756813 0.5 0.1125 0.944861 0.0472645 0.0981693
0.756813 0.5 -0.1125 0.944996 0.0470653 0.0734678
0.624316 0.5 -0.45 0.969981 0.0340697 0.0528933
0.624316 0.5 0.45 0.969742 0.0344793 0.120517
0.715434 0.5 0.3 0.954866 0.0425576 0.115155
0.715434 0.5 -0.3 0.955178 0.0421311 0.0572289
0.756813 0.5 0.1875 0.946092 0.0468387 0.106201
0.756813 0.5 -0.1875 0.946333 0.0465139 0.0655343
0.67013 0.5 -0.4125 0.964221 0.0375106 0.0517481
0.67013 0.5 0.4125 0.963911 0.0379709 0.121281
0.411736 0.5 0.675 0.98895 0.0203943 0.114368
0.411736 0.5 -0.675 0.988943 0.0202142 0.0601005
0.467897 0.5 0.6375 0.985872 0.023492 0.117486
0.467897 0.5 -0.6375 0.985899 0.0232561 0.0568621
0.075776 0.5 0.7875 0.996227 0.00469095 0.0933475
0.075776 0.5 -0.7875 0.996212 0.0046944 0.0811111
0.350249 0.5 0.7125 0.991872 0.0172395 0.110713
0.350249 0.5 -0.7125 0.991825 0.0171231 0.0638585
0.523432 0.5 0.6 0.981685 0.0267876 0.120412
0.523432 0.5 -0.6 0.98179 0.0264752 0.0537219
0.797732 0.5 3.20924e-17 0.937191 0.0509188 0.0855248
0.756813 0.5 0.2625 0.947928 0.0461806 0.113891
0.756814 0.5 -0.2625 0.948278 0.0457401 0.0579889
0.797732 0.5 0.075 0.937506 0.0508591 0.0945204
0.797732 0.5 -0.075 0.937624 0.0507057 0.0765591
0.288069 0.5 0.75 0.993646 0.0141595 0.106956
0.288069 0.5 -0.75 0.993601 0.0140825 0.0676312
0.574156 0.5 -0.5625 0.977503 0.0296574 0.0511169
0.574156 0.5 0.5625 0.977331 0.0300355 0.12278
0.715434 0.5 0.375 0.957167 0.0416741 0.121533
0.715434 0.5 -0.375 0.95756 0.0411615 0.0510235
0.797732 0.5 0.15 0.938554 0.0505282 0.103377
0.797732 0.5 -0.15 0.938802 0.0502262 0.0677897
0.624316 0.5 0.525 0.97193 0.0335217 0.124845
0.624316 0.5 -0.525 0.972205 0.0330653 0.048721
0.219992 0.5 0.7875 0.995283 0.0109943 0.102669
0.219992 0.5 -0.7875 0.995239 0.0109621 0.0719204
0 0.5 -0.818821 0.996195 0 0.0871557
0 0.5 0.818821 0.996195 0 0.0871557
0.0124865 0.5 -0.818821 0.996203 0.000775034 0.0861563
0.0124865 0.5 0.818821 0.996205 0.000774542 0.0881794
0 0.5 0.825 0.996195 0 0.0871557
0 0.5 -0.825 0.996195 0 0.0871557
0.756813 0.5 -0.3375 0.950769 0.0447616 0.050952
0.756813 0.5 0.3375 0.950319 0.0453078 0.121119
0.67013 0.5 0.4875 0.966356 0.0369621 0.126321
0.67013 0.5 -0.4875 0.966717 0.0364414 0.0468902
0.797732 0.5 0.225 0.940311 0.0499355 0.111932
0.797732 0.5 -0.225 0.940696 0.0494936 0.0593767
0 0.5 -0.831179 0.996195 0 0.0871557
0 0.5 0.831179 0.996195 0 0.0871557
0.0124865 0.5 0.831179 0.996213 0.000748707 0.0882206
0.0124865 0.5 -0.831179 0.99621 0.000749492 0.0861133
0.835106 0.5 -0.0375 0.930435 0.0542135 0.0804026
0.835106 0.5 0.0375 0.930362 0.0543006 0.0901331
0.151149 0.5 0.825 0.995816 0.00781397 0.0983925
0.151149 0.5 -0.825 0.995787 0.00779998 0.0761293
0.835106 0.5 0.1125 0.93113 0.0540898 0.0998054
0.835106 0.5 -0.1125 0.931353 0.0538313 0.0707981
0.715434 0.5 0.45 0.959857 0.0406248 0.127349
0.715434 0.5 -0.45 0.960328 0.0400354 0.0454121
0.797732 0.5 0.3 0.942734 0.0490962 0.120039
0.797732 0.5 -0.3 0.943252 0.0485258 0.0514635
0.467897 0.5 0.7125 0.987202 0.0227168 0.119616
0.467897 0.5 -0.7125 0.987233 0.0224679 0.0548046
0.523432 0.5 0.675 0.983367 0.0259085 0.12304
0.523432 0.5 -0.675 0.983482 0.0255756 0.0511989
0.411736 0.5 0.75 0.989989 0.019716 0.116061
0.411736 0.5 -0.75 0.989984 0.0195282 0.0584566
0.835106 0.5 0.1875 0.932713 0.0535877 0.109233
0.835106 0.5 -0.1875 0.933099 0.0531653 0.0615
0.574156 0.5 0.6375 0.979334 0.0290673 0.125953
0.574156 0.5 -0.6375 0.979523 0.0286602 0.0480788
0.350249 0.5 -0.7875 0.99255 0.0165516 0.0625847
0.350249 0.5 0.7875 0.992596 0.0166713 0.11201
0.756813 0.5 -0.4125 0.953742 0.0435985 0.0445401
0.756814 0.5 0.4125 0.953189 0.04424 0.127741
0.075776 0.5 -0.8625 0.996259 0.00453806 0.0808499
0.075776 0.5 0.8625 0.996274 0.00453295 0.0935977
0.624316 0.5 0.6 0.974295 0.0324644 0.128631
0.624316 0.5 -0.6 0.974599 0.0319679 0.0451049
0.872064 0.5 4.32235e-17 0.92312 0.057686 0.0849814
0.288069 0.5 0.825 0.994145 0.0136821 0.107911
0.288069 0.5 -0.825 0.9941 0.0136052 0.0666857
0.67013 0.5 0.5625 0.969038 0.0358328 0.13077
0.67013 0.5 -0.5625 0.969442 0.0352598 0.0426409
0.872064 0.5 0.075 0.923504 0.0576226 0.0954361
0.872064 0.5 -0.075 0.923684 0.0574284 0.0745648
0.835106 0.5 0.2625 0.935072 0.0528074 0.118248
0.835106 0.5 -0.2625 0.935627 0.0522325 0.0526807
0.797732 0.5 0.375 0.945748 0.0480312 0.127562
0.797732 0.5 -0.375 0.946395 0.0473438 0.0441856
0.872064 0.5 0.15 0.924819 0.05724 0.105726
0.872064 0.5 -0.15 0.925188 0.0568573 0.0643862
0.715434 0.5 0.525 0.962865 0.0394311 0.132537
0.715434 0.5 -0.525 0.963401 0.0387738 0.0404605
0.219992 0.5 0.8625 0.995541 0.0106187 0.103318
0.219993 0.5 -0.8625 0.995499 0.0105888 0.0712647
0 0.5 -0.893821 0.996195 0 0.0871557
0 0.5 0.893821 0.996195 0 0.0871557
0.0124865 0.5 0.893821 0.996213 0.000748707 0.0882206
0.0124865 0.5 -0.893821 0.99621 0.000749492 0.0861133
0 0.5 0.9 0.996195 0 0.0871557
0 0.5 -0.9 0.996195 0 0.0871557
0.756813 0.5 0.4875 0.956463 0.0430014 0.133728
0.756813 0.5 -0.4875 0.957109 0.0422758 0.038827
0.872064 0.5 0.225 0.927027 0.0565488 0.115657
0.872064 0.5 -0.225 0.927596 0.0559876 0.0546395
0.835106 0.5 0.3375 0.93815 0.0517682 0.126689
0.835106 0.5 -0.3375 0.938858 0.0510551 0.0444805
0 0.5 0.906179 0.996195 0 0.0871557
0 0.5 -0.906179 0.996195 0 0.0871557
0.0124865 0.5 0.906179 0.996219 0.000722755 0.0882513
0.0124865 0.5 -0.906179 0.996217 0.000723791 0.0860807
0.90582 0.5 -0.0375 0.916165 0.060909 0.0790986
0.905821 0.5 0.0375 0.916061 0.0610171 0.0903123
0.151149 0.5 0.9 0.995971 0.0075413 0.0987922
0.90582 0.5 0.1125 0.917003 0.0607792 0.101459
0.90582 0.5 -0.1125 0.917322 0.0604579 0.0680363
0.151149 0.5 -0.901373 0.995945 0.00754297 0.0756725
0.523432 0.5 0.75 0.985095 0.0249772 0.125223
0.523432 0.5 -0.75 0.985216 0.0246288 0.0491243
0.574157 0.5 0.7125 0.981413 0.0280329 0.128621
0.574156 0.5 -0.7125 0.981614 0.0276031 0.0455516
0.797732 0.5 0.45 0.949265 0.0467646 0.134385
0.797732 0.5 -0.45 0.950035 0.0459723 0.0376488
0.467897 0.5 0.7875 0.988554 0.0219016 0.121363
0.467897 0.5 -0.7875 0.988589 0.0216435 0.0531311
0.624316 0.5 0.675 0.976776 0.0313245 0.131849
0.624316 0.5 -0.675 0.977103 0.0307951 0.0420661
0.411736 0.5 0.825 0.991036 0.0190077 0.117428
0.411736 0.5 -0.825 0.991032 0.0188153 0.0571384
0.872064 0.5 0.3 0.930073 0.0555662 0.125046
0.872064 0.5 -0.3 0.930838 0.0548405 0.0454982
0.67013 0.5 0.6375 0.971887 0.0346024 0.134594
0.67013 0.5 -0.6375 0.972328 0.0339852 0.039032
0.90582 0.5 0.1875 0.918959 0.0602021 0.112317
0.90582 0.5 -0.1875 0.919505 0.0596766 0.0573404
0.350249 0.5 -0.8625 0.993276 0.0159613 0.061577
0.350249 0.5 0.8625 0.99332 0.0160813 0.11304
0.835106 0.5 0.4125 0.941838 0.050497 0.13444
0.835106 0.5 -0.4125 0.942702 0.049656 0.0370637
0.715434 0.5 0.6 0.966106 0.038114 0.137038
0.715434 0.5 -0.6 0.966696 0.0373984 0.0362129
0.939201 0.5 4.40909e-17 0.908441 0.0645196 0.084407
0.075776 0.5 -0.9375 0.996302 0.00438041 0.0806518
0.075776 0.5 0.9375 0.996317 0.00437379 0.0937846
0.939201 0.5 0.075 0.908898 0.0644519 0.0963945
0.939201 0.5 -0.075 0.909151 0.064214 0.0724668
0.756814 0.5 0.5625 0.960052 0.0416157 0.138964
0.756814 0.5 -0.5625 0.96077 0.0408162 0.0338769
0.905821 0.5 0.2625 0.921876 0.059301 0.122687
0.905821 0.5 -0.2625 0.922657 0.0585839 0.0472176
0.288069 0.5 0.9 0.994641 0.0131905 0.108651
0.288069 0.5 -0.901373 0.994606 0.0131187 0.0658955
0.872064 0.5 0.375 0.933866 0.0543167 0.133741
0.872064 0.5 -0.375 0.934818 0.0534408 0.0371335
0.939201 0.5 -0.15 0.911016 0.0635435 0.0608116
0.939201 0.5 0.15 0.910501 0.0640129 0.108187
0.797732 0.5 0.525 0.953188 0.0453225 0.140427
0.797732 0.5 -0.525 0.954062 0.0444386 0.0319246
0.219993 0.5 -0.9375 0.995758 0.0102081 0.0707682
0.219992 0.5 0.9375 0.995799 0.0102359 0.103807
0.939201 0.5 0.225 0.9132 0.0632145 0.119554
0.939201 0.5 -0.225 0.913987 0.0625251 0.0496714
0.90582 0.5 0.3375 0.925681 0.0580973 0.132369
0.90582 0.5 -0.3375 0.926687 0.0572063 0.0378411
0.835106 0.5 -0.4875 0.947039 0.0480669 0.0304973
0.835107 0.5 0.4875 0.946035 0.0490186 0.141331
0 0.5 0.968821 0.996195 0 0.0871557
0 0.5 -0.968821 0.996195 0 0.0871557
0.0124865 0.5 0.968821 0.996219 0.000722755 0.0882513
0.0124865 0.5 -0.968821 0.996217 0.000723791 0.0860807
0.969689 0.5 0.0375 0.90095 0.0679974 0.090522
0.969689 0.5 -0.0375 0.901095 0.0678665 0.0777147
0.574156 0.5 0.7875 0.983519 0.0269482 0.13078
0.574156 0.5 -0.7875 0.983727 0.026502 0.0435338
0 0.5 0.975 0.996195 0 0.0871557
0 0.5 -0.975 0.996195 0 0.0871557
0.624316 0.5 0.75 0.979315 0.0301196 0.134491
0.624316 0.5 -0.75 0.979655 0.0295653 0.0396092
0.969689 0.5 0.1125 0.902082 0.0677258 0.103251
0.96969 0.5 -0.1125 0.902524 0.0673363 0.0650894
0.523432 0.5 0.825 0.98683 0.0240071 0.126962
0.523432 0.5 -0.825 0.986953 0.0236485 0.0474927
0.67013 0.5 0.7125 0.974836 0.0332905 0.137774
0.67013 0.5 -0.7125 0.975301 0.0326386 0.0360765
0 0.5 -0.981179 0.996195 0 0.0871557
0 0.5 0.981179 0.996195 0 0.0871557
0.467897 0.5 0.8625 0.989903 0.0210574 0.12273
0.467897 0.5 -0.8625 0.989938 0.0207944 0.051834
0.0124865 0.5 0.981179 0.996225 0.000696952 0.0882721
0.0124865 0.5 -0.981179 0.996223 0.000698279 0.0860581
0.872064 0.5 0.45 0.938288 0.0528288 0.141585
0.872064 0.5 -0.45 0.93941 0.0518184 0.0296647
0.715434 0.5 0.675 0.969498 0.0366957 0.140827
0.715434 0.5 -0.675 0.970127 0.0359324 0.0326929
0.939201 0.5 0.3 0.916924 0.0620767 0.130277
0.939201 0.5 -0.3 0.917983 0.0611831 0.0392559
0.151149 0.5 0.975 0.996124 0.0072661 0.0990816
0.151149 0.5 -0.975 0.996096 0.00725594 0.0754216
0.969689 0.5 0.1875 0.904451 0.0670591 0.115635
0.969689 0.5 -0.1875 0.905201 0.0664211 0.0529025
0.756814 0.5 0.6375 0.963853 0.0401067 0.143426
0.756814 0.5 -0.6375 0.964632 0.0392452 0.029724
0.411736 0.5 0.9 0.992072 0.0182787 0.118475
0.411736 0.5 -0.901373 0.992089 0.0180787 0.0560717
0.90582 0.5 0.4125 0.93025 0.0566216 0.141232
0.90582 0.5 -0.4125 0.93147 0.055571 0.0294165
0.797732 0.5 0.6 0.957406 0.0437326 0.145633
0.797732 0.5 -0.6 0.958364 0.0427699 0.027067
1.00005 0.5 1.48897e-17 0.894114 0.0705765 0.0838102
0.350249 0.5 -0.9375 0.99399 0.0153593 0.0608265
0.350249 0.5 0.9375 0.994034 0.0154778 0.113811
1.00005 0.5 0.0749309 0.894644 0.0705085 0.0972401
1.00005 0.5 -0.0749309 0.894975 0.0702297 0.0704359
0.969689 0.5 0.2625 0.907989 0.0660152 0.127441
0.969689 0.5 -0.2625 0.909054 0.0651426 0.0413947
0.835106 0.5 0.5625 0.950627 0.0473648 0.14735
0.835106 0.5 -0.5625 0.951737 0.0463166 0.0248624
1.00005 0.5 0.149862 0.896538 0.070028 0.110448
1.00005 0.5 -0.149862 0.89721 0.0694773 0.0573883
0.939201 0.5 0.375 0.921563 0.0606272 0.140173
0.939201 0.5 -0.375 0.922877 0.0595475 0.0297591
0.075776 0.5 1.0125 0.996352 0.00421569 0.093911
0.075776 0.5 -1.0125 0.996339 0.00422382 0.0805142
0.288069 0.5 0.975 0.995128 0.0126916 0.109185
0.288069 0.5 -0.975 0.995086 0.0126181 0.0654238
0.872064 0.5 0.525 0.943206 0.0511345 0.148476
0.872064 0.5 -0.525 0.94447 0.050006 0.0231726
1.00005 0.5 0.224793 0.899738 0.0691477 0.123172
1.00005 0.5 -0.224793 0.900759 0.0683376 0.0449294
0.96969 0.5 0.3375 0.9126 0.0646189 0.13843
0.96969 0.5 -0.3375 0.913975 0.0635316 0.0307832
1.0271 0.5 0.0368226 0.8866 0.073917 0.0905293
1.0271 0.5 -0.0368226 0.886779 0.07377 0.0765225
0.90582 0.5 0.4875 0.935449 0.0549049 0.149065
0.90582 0.5 -0.4875 0.936837 0.0537154 0.021984
1.0271 0.5 0.110468 0.887891 0.0736392 0.104454
1.0271 0.5 -0.110468 0.888434 0.0732012 0.0627116
0.67013 0.5 -0.7875 0.97829 0.0312406 0.0337679
0.67013 0.5 0.7875 0.977814 0.0319179 0.140309
0.624316 0.5 0.825 0.981857 0.0288677 0.13656
0.624316 0.5 -0.825 0.982201 0.0282965 0.0377231
0.219992 0.5 -1.0125 0.996019 0.0098253 0.0704216
0.219993 0.5 1.0125 0.996059 0.00985059 0.104145
0.574156 0.5 0.8625 0.985611 0.0258282 0.132441
0.574156 0.5 -0.8625 0.985818 0.0253721 0.0420117
0.715434 0.5 0.75 0.972958 0.0351992 0.143895
0.715434 0.5 -0.75 0.973611 0.0344 0.0299017
0.756813 0.5 -0.7125 0.968593 0.0375893 0.0263829
0.756814 0.5 0.7125 0.967775 0.0384993 0.147092
0.523432 0.5 0.9 0.98854 0.0230114 0.128269
0.939201 0.5 0.45 0.926972 0.0588995 0.149066
0.939201 0.5 -0.45 0.928502 0.0576535 0.0213096
1.04168 0.5 0 0.882482 0.0755561 0.0833594
0.523432 0.5 -0.901373 0.988702 0.0226316 0.0462179
1.0271 0.5 0.184113 0.890605 0.0729441 0.118011
1.0271 0.5 -0.184113 0.891523 0.072225 0.0493728
0 0.5 1.04382 0.996195 0 0.0871557
0 0.5 -1.04382 0.996195 0 0.0871557
0.0124865 0.5 1.04382 0.996225 0.000696952 0.0882721
0.0124865 0.5 -1.04382 0.996223 0.000698279 0.0860581
1.00005 0.5 0.299723 0.904151 0.0678893 0.135161
1.00005 0.5 -0.299723 0.905522 0.0668371 0.0333033
1.04168 0.5 0.0729162 0.883046 0.0754924 0.0976345
1.04168 0.5 -0.0729162 0.883425 0.0751917 0.0691428
0.797732 0.5 0.675 0.961809 0.0420226 0.14997
0.797732 0.5 -0.675 0.962829 0.0409954 0.0231012
0.467897 0.5 -0.9375 0.991255 0.0199313 0.050898
0.467897 0.5 0.9375 0.991223 0.0201952 0.123734
0 0.5 1.05 0.996195 0 0.0871557
0 0.5 -1.05 0.996195 0 0.0871557
0.835106 0.5 0.6375 0.955475 0.0455672 0.152427
0.835106 0.5 -0.6375 0.95668 0.044437 0.0201951
1.04168 0.5 0.145832 0.88509 0.0750027 0.111682
1.04168 0.5 -0.145832 0.885857 0.0744077 0.0552647
0.969689 0.5 -0.4125 0.919783 0.061623 0.0212468
0.96969 0.5 0.4125 0.918144 0.0629051 0.148441
0 0.5 1.05618 0.996195 0 0.0871557
0 0.5 -1.05618 0.996195 0 0.0871557
0.0124865 0.5 1.05618 0.996229 0.000671649 0.0882837
0.0124865 0.5 -1.05618 0.996227 0.000673117 0.0860446
1.05695 0.5 -0.0360764 0.878413 0.0771551 0.0758374
1.05695 0.5 0.0360764 0.878208 0.0773116 0.0904321
0.411736 0.5 0.975 0.993079 0.0175381 0.119217
0.411736 0.5 -0.975 0.993073 0.0173457 0.0554361
0.872064 0.5 0.6 0.948472 0.0492674 0.154373
0.872064 0.5 -0.6 0.949859 0.0480365 0.0177248
1.0271 0.5 0.257759 0.894664 0.0718487 0.130945
1.0271 0.5 -0.257759 0.895961 0.0708632 0.036766
0.151149 0.5 -1.05 0.996249 0.00698252 0.0752252
0.151149 0.5 1.05 0.996276 0.00699052 0.0992678
1.05695 0.5 0.108229 0.879537 0.0770353 0.104948
1.05695 0.5 -0.108229 0.880155 0.0765685 0.0614435
1.04168 0.5 0.218749 0.888552 0.0740993 0.125228
1.04168 0.5 -0.218749 0.889714 0.0732222 0.0419964
0.90582 0.5 0.5625 0.941095 0.0529877 0.155852
0.90582 0.5 -0.5625 0.942633 0.0516729 0.0156783
1.00005 0.5 0.374654 0.909648 0.0662829 0.146203
1.00005 0.5 -0.374654 0.911341 0.0650097 0.0227157
0.350249 0.5 1.0125 0.994725 0.0148685 0.114335
0.350249 0.5 -1.0125 0.994682 0.0147521 0.0603159
1.05695 0.5 0.180382 0.882352 0.0763332 0.119087
1.05695 0.5 -0.180382 0.883393 0.0755658 0.0475346
0.939201 0.5 0.525 0.932967 0.0569336 0.156861
0.939201 0.5 -0.525 0.934685 0.0555401 0.014028
1.0271 0.5 -0.331404 0.901621 0.069146 0.0251338
1.0271 0.5 0.331404 0.899949 0.0703784 0.143004
1.08112 0.5 3.20924e-17 0.870912 0.0801343 0.082868
1.04168 0.5 0.291665 0.893331 0.0728034 0.138015
1.04168 0.5 -0.291665 0.894891 0.0716609 0.0295962
1.08112 0.5 0.0709442 0.87149 0.0800773 0.0979204
1.08112 0.5 -0.0709442 0.871924 0.0797549 0.0678774
0.96969 0.5 0.4875 0.924431 0.0609109 0.157272
0.96969 0.5 -0.4875 0.926292 0.0594575 0.0128761
1.05695 0.5 0.252535 0.886575 0.0752223 0.132593
1.05695 0.5 -0.252535 0.888041 0.0741689 0.034375
0.288069 0.5 1.05 0.995602 0.0121891 0.109527
0.288069 0.5 -1.05 0.995561 0.0121183 0.065084
0.075776 0.5 -1.0875 0.996368 0.0040693 0.0804322
0.075776 0.5 1.0875 0.996379 0.00406009 0.0939819
1.08112 0.5 0.141888 0.873629 0.0795862 0.112743
1.08112 0.5 -0.141888 0.874505 0.0789471 0.0532336
0.715434 0.5 0.825 0.976409 0.0336477 0.146252
0.715434 0.5 -0.825 0.977068 0.0328242 0.0278194
0.756814 0.5 0.7875 0.971722 0.0368209 0.149962
0.756814 0.5 -0.7875 0.972558 0.0358762 0.0238379
0.67013 0.5 0.8625 0.98076 0.0305038 0.142216
0.67013 0.5 -0.8625 0.981234 0.0298112 0.0320838
0.797732 0.5 0.75 0.966288 0.0402209 0.153428
0.797732 0.5 -0.75 0.96734 0.0391446 0.0200239
0.624316 0.5 0.9 0.984351 0.0275864 0.138077
1.00005 0.5 0.449585 0.916046 0.0643658 0.15611
1.00005 0.5 -0.449585 0.918021 0.0628936 0.013341
0.624316 0.5 -0.901373 0.984754 0.0269797 0.0363097
0.835106 0.5 0.7125 0.960471 0.0436552 0.156546
0.835106 0.5 -0.7125 0.961731 0.0424607 0.0165109
0.574156 0.5 -0.9375 0.987849 0.0242286 0.0409604
0.574156 0.5 0.9375 0.987649 0.0246884 0.133624