# UMean  POINT_DATA 63140
# x  y  z  UMean_x  UMean_y  UMean_z
0 0.1 0 0.996195 0 0.0871557
0 0.1 -0.0179898 0.996195 0 0.0871557
0 0.1 0.0179898 0.996195 0 0.0871557
0.0363518 0.1 -0.0179898 0.999125 0.00745526 0.0870019
0.0363518 0.1 0.0179898 0.999141 0.00745956 0.0874065
0 0.1 -0.0570102 0.996195 0 0.0871557
0 0.1 0.0570102 0.996195 0 0.0871557
0.0363518 0.1 0.0570102 0.999141 0.00745956 0.0874065
0.0363518 0.1 -0.0570102 0.999125 0.00745526 0.0870019
0 0.1 0.075 0.996195 0 0.0871557
0 0.1 -0.075 0.996195 0 0.0871557
0.075776 0.1 -0.0375 1.00235 0.015668 0.0868342
0.075776 0.1 0.0375 1.00238 0.0156768 0.0876774
0 0.1 0.0929898 0.996195 0 0.0871557
0 0.1 -0.0929898 0.996195 0 0.0871557
0.0363518 0.1 0.0929898 0.999101 0.00743505 0.0878203
0.0363518 0.1 -0.0929898 0.999061 0.00742431 0.0865846
0 0.1 0.13201 0.996195 0 0.0871557
0 0.1 -0.13201 0.996195 0 0.0871557
0.075776 0.1 0.1125 1.0023 0.0156268 0.0885403
0.075776 0.1 -0.1125 1.00221 0.0156052 0.0859638
0.0363518 0.1 0.13201 0.999101 0.00743505 0.0878203
0.0363518 0.1 -0.13201 0.999061 0.00742431 0.0865846
0 0.1 0.15 0.996195 0 0.0871557
0 0.1 -0.15 0.996195 0 0.0871557
0.150379 0.1 -8.67362e-19 1.00449 0.015169 0.0872442
0.150379 0.1 0.0710023 1.00447 0.0151692 0.0885521
0 0.1 0.16799 0.996195 0 0.0871557
0 0.1 -0.16799 0.996195 0 0.0871557
0.150379 0.1 -0.075 1.00454 0.0151382 0.0857692
0.0363518 0.1 0.16799 0.999043 0.00739813 0.0882168
0.0363518 0.1 -0.16799 0.998999 0.00738754 0.0861829
0.075776 0.1 0.1875 1.00218 0.0155522 0.0893674
0.075776 0.1 -0.1875 1.00209 0.0155309 0.0851255
0 0.1 0.20701 0.996195 0 0.0871557
0 0.1 -0.20701 0.996195 0 0.0871557
0.0363518 0.1 0.20701 0.999043 0.00739813 0.0882168
0.0363518 0.1 -0.20701 0.998999 0.00738754 0.0861829
0.150379 0.1 -0.15 1.00471 0.0150844 0.0842874
0.150379 0.1 0.15 1.00468 0.0151091 0.0901812
0.219992 0.1 -0.0375 1.00654 0.0146861 0.0861993
0.219992 0.1 0.0375 1.00649 0.0146992 0.0882669
0 0.1 0.225 0.996195 0 0.0871557
0 0.1 -0.225 0.996195 0 0.0871557
0 0.1 0.24299 0.996195 0 0.0871557
0 0.1 -0.24299 0.996195 0 0.0871557
0.0363518 0.1 0.24299 0.998988 0.00736427 0.0885969
0.0363518 0.1 -0.24299 0.998952 0.00735563 0.0858006
0.219992 0.1 0.1125 1.00674 0.0146752 0.0903163
0.219993 0.1 -0.1125 1.00687 0.0146471 0.0841366
0.150379 0.1 -0.225 1.00494 0.0150276 0.0828348
0.150379 0.1 0.225 1.00491 0.0150503 0.0916274
0.075776 0.1 -0.2625 1.00199 0.0154659 0.0843286
0.075776 0.1 0.2625 1.00207 0.0154836 0.09016
0 0.1 -0.28201 0.996195 0 0.0871557
0 0.1 0.28201 0.996195 0 0.0871557
0.0363518 0.1 -0.28201 0.998952 0.00735563 0.0858006
0.0363518 0.1 0.28201 0.998988 0.00736427 0.0885969
0.287374 0.1 0 1.00346 0.0142237 0.0871533
0.219992 0.1 -0.1875 1.00744 0.0146069 0.0820376
0.219993 0.1 0.1875 1.00727 0.0146343 0.0923895
0.287374 0.1 0.0710023 1.00359 0.014234 0.0895516
0.287374 0.1 -0.075 1.00363 0.0142081 0.0844684
0 0.1 0.3 0.996195 0 0.0871557
0 0.1 -0.3 0.996195 0 0.0871557
0 0.1 0.31799 0.996195 0 0.0871557
0 0.1 -0.31799 0.996195 0 0.0871557
0.0363518 0.1 0.31799 0.998954 0.00733194 0.088946
0.0363518 0.1 -0.31799 0.998924 0.00732362 0.08545
0.287374 0.1 0.15 1.00392 0.0142055 0.0925037
0.287374 0.1 -0.15 1.00407 0.0141794 0.0817721
0.150379 0.1 -0.3 1.00515 0.0149675 0.0814626
0.150379 0.1 0.3 1.00514 0.0149873 0.0930076
0.219993 0.1 -0.2625 1.00797 0.0145582 0.0800187
0.219993 0.1 0.2625 1.00787 0.0145822 0.094424
0.075776 0.1 0.3375 1.002 0.0154173 0.0908872
0.075776 0.1 -0.3375 1.00193 0.0154002 0.0835983
0.350249 0.1 0.0375 1.00052 0.0137788 0.0887153
0.350249 0.1 -0.0375 1.00056 0.0137734 0.0854387
0 0.1 -0.35701 0.996195 0 0.0871557
0 0.1 0.35701 0.996195 0 0.0871557
0.0363518 0.1 0.35701 0.998954 0.00733194 0.088946
0.0363518 0.1 -0.35701 0.998924 0.00732362 0.08545
0.287374 0.1 0.225 1.00449 0.0141604 0.0951589
0.287374 0.1 -0.225 1.00465 0.0141301 0.0791085
0.350249 0.1 0.1125 1.00073 0.0137862 0.0919733
0.350249 0.1 -0.1125 1.00084 0.0137677 0.0821593
0 0.1 0.375 0.996195 0 0.0871557
0 0.1 -0.375 0.996195 0 0.0871557
0 0.1 -0.39299 0.996195 0 0.0871557
0 0.1 0.39299 0.996195 0 0.0871557
0.0363518 0.1 -0.39299 0.998909 0.00729263 0.0851304
0.0363518 0.1 0.39299 0.998931 0.00729916 0.0892586
0.350249 0.1 -0.1875 1.00139 0.0137371 0.0788679
0.350249 0.1 0.1875 1.00121 0.0137673 0.0952364
0.219992 0.1 0.3375 1.00836 0.0145168 0.0963343
0.219993 0.1 -0.3375 1.00842 0.0144967 0.0781311
0.150379 0.1 0.375 1.00536 0.0149194 0.0942885
0.150379 0.1 -0.375 1.00536 0.0149035 0.0801921
0.411108 0.1 0 0.995263 0.0140498 0.0869253
0.287374 0.1 0.3 1.00514 0.014087 0.0977159
0.287374 0.1 -0.3 1.00526 0.0140548 0.0765697
0.411108 0.1 0.0710023 0.995449 0.0140485 0.0904781
0.411108 0.1 -0.075 0.995451 0.0140409 0.0829599
0.075776 0.1 0.4125 1.00195 0.0153503 0.0915389
0.075776 0.1 -0.4125 1.0019 0.0153371 0.0829321
0 0.1 0.43201 0.996195 0 0.0871557
0 0.1 -0.43201 0.996195 0 0.0871557
0.0363518 0.1 0.43201 0.998931 0.00729916 0.0892586
0.0363518 0.1 -0.43201 0.998909 0.00729263 0.0851304
0.411108 0.1 -0.15 0.995935 0.0140162 0.0790116
0.411108 0.1 0.15 0.995763 0.0140454 0.094814
0.350249 0.1 -0.2625 1.00208 0.01366 0.0756748
0.350249 0.1 0.2625 1.00191 0.0136991 0.0984349
0 0.1 0.45 0.996195 0 0.0871557
0 0.1 -0.45 0.996195 0 0.0871557
0.219992 0.1 -0.4125 1.00887 0.0144312 0.0763849
0.219992 0.1 0.4125 1.00884 0.0144444 0.0981152
0 0.1 0.46799 0.996195 0 0.0871557
0 0.1 -0.46799 0.996195 0 0.0871557
0.411108 0.1 0.225 0.996463 0.013997 0.0986816
0.411108 0.1 -0.225 0.99668 0.0139548 0.0751427
0.467897 0.1 -0.0375 0.990229 0.0143068 0.0844625
0.467897 0.1 0.0375 0.99018 0.0143143 0.0890968
0.0363518 0.1 0.46799 0.99893 0.0072706 0.089547
0.0363518 0.1 -0.46799 0.99892 0.00726408 0.0848292
0.287374 0.1 0.375 1.0058 0.0139902 0.100108
0.287374 0.1 -0.375 1.00588 0.0139581 0.0742077
0.150379 0.1 0.45 1.00558 0.0148511 0.0954507
0.150379 0.1 -0.45 1.00557 0.0148373 0.0790344
0.467897 0.1 0.1125 0.990459 0.0143154 0.0936993
0.467897 0.1 -0.1125 0.99061 0.0142903 0.0798473
0.350249 0.1 0.3375 1.0027 0.0135926 0.101469
0.350249 0.1 -0.3375 1.00284 0.0135482 0.0726702
0.075776 0.1 -0.4875 1.00193 0.015279 0.0823045
0.075776 0.1 0.4875 1.00195 0.0152922 0.0921398
0.467897 0.1 0.1875 0.991094 0.0142874 0.098248
0.467897 0.1 -0.1875 0.991332 0.014245 0.0752944
0 0.1 0.50701 0.996195 0 0.0871557
0 0.1 -0.50701 0.996195 0 0.0871557
0.0363518 0.1 -0.50701 0.99892 0.00726408 0.0848292
0.0363518 0.1 0.50701 0.99893 0.0072706 0.089547
0.411108 0.1 0.3 0.997385 0.0139015 0.102403
0.411108 0.1 -0.3 0.997601 0.0138487 0.0714521
0.522865 0.1 -9.1073e-18 0.983482 0.0149826 0.0865698
0 0.1 0.525 0.996195 0 0.0871557
0 0.1 -0.525 0.996195 0 0.0871557
0.522865 0.1 0.0710023 0.983728 0.0149702 0.0913768
0.522865 0.1 -0.075 0.983743 0.0149627 0.0812209
0.287374 0.1 0.45 1.00644 0.0138749 0.102289
0.287374 0.1 -0.45 1.00648 0.0138425 0.0720615
0.219992 0.1 -0.4875 1.00925 0.0143539 0.0748406
0.219992 0.1 0.4875 1.00926 0.0143694 0.099682
0.467897 0.1 0.2625 0.992064 0.0142093 0.102656
0.467897 0.1 -0.2625 0.99234 0.014153 0.0709071
0.350249 0.1 -0.4125 1.00363 0.0134029 0.0699079
0.350249 0.1 0.4125 1.00354 0.0134522 0.104267
0 0.1 0.54299 0.996195 0 0.0871557
0 0.1 -0.54299 0.996195 0 0.0871557
0.522865 0.1 -0.15 0.984406 0.0149147 0.0759369
0.522865 0.1 0.15 0.984166 0.0149576 0.0972041
0.0363518 0.1 0.54299 0.998947 0.00724078 0.0898152
0.0363518 0.1 -0.54299 0.998941 0.00723458 0.0845526
0.150379 0.1 -0.525 1.00577 0.0147654 0.0779981
0.150379 0.1 0.525 1.00579 0.0147793 0.096479
0.411108 0.1 0.375 0.998444 0.0137621 0.105888
0.411108 0.1 -0.375 0.99863 0.0137003 0.0680174
0.075776 0.1 0.5625 1.00199 0.0152312 0.0926987
0.075776 0.1 -0.5625 1.00197 0.0152185 0.0817282
0.522865 0.1 0.225 0.985122 0.0148848 0.102364
0.522865 0.1 -0.225 0.985449 0.0148227 0.0708064
0.574156 0.1 0.0375 0.976985 0.015632 0.0894022
0.574157 0.1 -0.0375 0.977056 0.0156194 0.0833334
0.467897 0.1 -0.3375 0.993549 0.0140104 0.0667785
0.467897 0.1 0.3375 0.993278 0.0140811 0.10685
0 0.1 0.58201 0.996195 0 0.0871557
0 0.1 -0.58201 0.996195 0 0.0871557
0.0363518 0.1 0.58201 0.998947 0.00724078 0.0898152
0.0363518 0.1 -0.58201 0.998941 0.00723458 0.0845526
0.574156 0.1 0.1125 0.977375 0.0156159 0.0954289
0.574156 0.1 -0.1125 0.977595 0.0155769 0.077312
0.287374 0.1 0.525 1.00705 0.0137435 0.104219
0.287374 0.1 -0.525 1.00706 0.0137113 0.0701539
0 0.1 0.6 0.996195 0 0.0871557
0 0.1 -0.6 0.996195 0 0.0871557
0.350249 0.1 0.4875 1.00437 0.0132827 0.106798
0.350249 0.1 -0.4875 1.00441 0.0132327 0.0674194
0.522865 0.1 -0.3 0.986803 0.0146757 0.0659287
0.522865 0.1 0.3 0.986436 0.014756 0.107304
0.219992 0.1 0.5625 1.00961 0.0142774 0.101028
0.219992 0.1 -0.5625 1.00959 0.0142633 0.0734829
0.574156 0.1 0.1875 0.978248 0.015555 0.101346
0.574157 0.1 -0.1875 0.9786 0.0154906 0.0714188
0.411108 0.1 0.45 0.999577 0.0135824 0.109076
0.411108 0.1 -0.45 0.999719 0.0135148 0.0648901
0 0.1 0.61799 0.996195 0 0.0871557
0 0.1 -0.61799 0.996195 0 0.0871557
0.150379 0.1 0.6 1.00599 0.0146997 0.0973809
0.150379 0.1 -0.6 1.00598 0.0146889 0.0770786
0.0363518 0.1 -0.61799 0.998963 0.00720699 0.0843077
0.0363518 0.1 0.61799 0.998969 0.0072114 0.0900541
0.623413 0.1 0 0.969212 0.0166251 0.0861077
0.467897 0.1 0.4125 0.994654 0.0138997 0.11072
0.467897 0.1 -0.4125 0.994889 0.0138181 0.0629803
0.623803 0.1 0.0710023 0.969518 0.0166013 0.0922385
0.623803 0.1 -0.075 0.969579 0.0165865 0.0792998
0.574156 0.1 0.2625 0.979584 0.0154325 0.107058
0.574157 0.1 -0.2625 0.980022 0.0153482 0.0657811
0.623803 0.1 -0.15 0.970501 0.0164973 0.0726036
0.623803 0.1 0.15 0.970146 0.0165652 0.0996456
0.075776 0.1 0.6375 1.00203 0.0151711 0.0931965
0.075776 0.1 -0.6375 1.00202 0.0151621 0.0812176
0.522865 0.1 -0.375 0.988389 0.01447 0.0613956
0.522865 0.1 0.375 0.988024 0.0145693 0.111926
0 0.1 0.65701 0.996195 0 0.0871557
0 0.1 -0.65701 0.996195 0 0.0871557
0.0363518 0.1 0.65701 0.998969 0.0072114 0.0900541
0.0363518 0.1 -0.65701 0.998963 0.00720699 0.0843077
0.350249 0.1 0.5625 1.00518 0.0130976 0.109035
0.350249 0.1 -0.5625 1.0052 0.0130502 0.0652192
0.623803 0.1 0.225 0.971448 0.0164464 0.106179
0.623803 0.1 -0.225 0.971946 0.0163465 0.0661373
0.287374 0.1 0.6 1.00764 0.0135992 0.105902
0.287374 0.1 -0.6 1.00764 0.0135698 0.0684794
0.574156 0.1 0.3375 0.981306 0.0152483 0.112454
0.574157 0.1 -0.3375 0.98178 0.0151394 0.0604717
0.411108 0.1 0.525 1.00074 0.0133726 0.11193
0.411108 0.1 -0.525 1.00084 0.0133037 0.0621018
0.67013 0.1 0.0375 0.961632 0.0175945 0.0896465
0.67013 0.1 -0.0375 0.961737 0.0175743 0.0820671
0.219993 0.1 0.6375 1.00998 0.0141737 0.102199
0.219993 0.1 -0.6375 1.00996 0.0141666 0.0722838
0 0.1 0.675 0.996195 0 0.0871557
0 0.1 -0.675 0.996195 0 0.0871557
0.467897 0.1 0.4875 0.996117 0.0136743 0.114229
0.467897 0.1 -0.4875 0.996306 0.0135863 0.0595616
0.67013 0.1 0.1125 0.962165 0.0175573 0.0971743
0.67013 0.1 -0.1125 0.962488 0.017496 0.0745595
0.522865 0.1 -0.45 0.990137 0.014213 0.0572812
0.522865 0.1 0.45 0.9898 0.0143276 0.116153
0.150379 0.1 0.675 1.00621 0.0146177 0.0981643
0.150379 0.1 -0.675 1.0062 0.0146128 0.0762766
0.623803 0.1 0.3 0.973255 0.0162564 0.112409
0.623803 0.1 -0.3 0.973844 0.0161263 0.0600173
0 0.1 -0.69299 0.996195 0 0.0871557
0 0.1 0.69299 0.996195 0 0.0871557
0.0363518 0.1 0.69299 0.998989 0.00718556 0.090259
0.0363518 0.1 -0.69299 0.998981 0.00718311 0.0840976
0.67013 0.1 0.1875 0.963346 0.0174538 0.104543
0.67013 0.1 -0.1875 0.963871 0.0173479 0.0672496
0.574156 0.1 0.4125 0.983324 0.0149976 0.117439
0.574157 0.1 -0.4125 0.983794 0.0148634 0.0556191
0.714619 0.1 4.77049e-18 0.953049 0.0188872 0.0855551
0.075776 0.1 0.7125 1.00207 0.0151183 0.0936236
0.075776 0.1 -0.7125 1.00206 0.0151133 0.0807797
0.714971 0.1 0.0710023 0.953415 0.0188525 0.0930817
0.714971 0.1 -0.075 0.953551 0.0188234 0.0772081
0.67013 0.1 0.2625 0.965152 0.0172675 0.111629
0.67013 0.1 -0.2625 0.965821 0.0171243 0.0602752
0.411108 0.1 0.6 1.00191 0.0131452 0.114429
0.411108 0.1 -0.6 1.002 0.013076 0.0596684
0.350249 0.1 0.6375 1.00599 0.0129053 0.110976
0.350249 0.1 -0.6375 1.00601 0.012858 0.0633124
0.623803 0.1 0.375 0.97548 0.0159938 0.118219
0.623803 0.1 -0.375 0.976112 0.0158317 0.0543534
0.714971 0.1 0.15 0.954283 0.0187847 0.102158
0.714971 0.1 -0.15 0.954795 0.0186783 0.0690224
0.467897 0.1 0.5625 0.997621 0.013418 0.117331
0.467897 0.1 -0.5625 0.997781 0.0133296 0.056552
0 0.1 0.73201 0.996195 0 0.0871557
0 0.1 -0.73201 0.996195 0 0.0871557
0.0363518 0.1 0.73201 0.998989 0.00718556 0.090259
0.0363518 0.1 -0.73201 0.998981 0.00718311 0.0840976
0.287374 0.1 0.675 1.00825 0.0134455 0.10735
0.287374 0.1 -0.675 1.00825 0.0134209 0.0670351
0.522865 0.1 0.525 0.991689 0.0140417 0.119932
0.522865 0.1 -0.525 0.991995 0.0139184 0.0536284
0.219992 0.1 0.7125 1.01038 0.0140647 0.103208
0.219992 0.1 -0.7125 1.01037 0.0140661 0.0712531
0.714971 0.1 -0.225 0.956735 0.0184454 0.0611456
0.714971 0.1 0.225 0.956007 0.0186044 0.110143
0 0.1 0.75 0.996195 0 0.0871557
0 0.1 -0.75 0.996195 0 0.0871557
0.67013 0.1 -0.3375 0.968262 0.0168217 0.0537629
0.67013 0.1 0.3375 0.967499 0.0170032 0.118305
0.574157 0.1 0.4875 0.985541 0.0146912 0.121942
0.574157 0.1 -0.4875 0.985985 0.0145389 0.0512699
0.756813 0.1 0.0375 0.944624 0.0201562 0.0898507
0.756814 0.1 -0.0375 0.944773 0.0201268 0.0806755
0.150379 0.1 -0.75 1.00642 0.0145386 0.0755993
0.150379 0.1 0.75 1.00644 0.0145383 0.0988277
0.756813 0.1 0.1125 0.945321 0.0200973 0.0989632
0.756814 0.1 -0.1125 0.945773 0.0200006 0.0716028
0 0.1 0.76799 0.996195 0 0.0871557
0 0.1 -0.76799 0.996195 0 0.0871557
0.0363518 0.1 0.76799 0.999003 0.00716382 0.0904278
0.0363518 0.1 -0.76799 0.998994 0.00716285 0.0839237
0.623803 0.1 0.45 0.97802 0.015663 0.123517
0.623803 0.1 -0.45 0.978657 0.0154725 0.0492376
0.714971 0.1 0.3 0.958407 0.0183313 0.117733
0.714971 0.1 -0.3 0.959294 0.0181213 0.0537305
0.756813 0.1 0.1875 0.946862 0.0199349 0.107866
0.756813 0.1 -0.1875 0.947601 0.0197749 0.062801
0.67013 0.1 -0.4125 0.971093 0.0164345 0.0478235
0.67013 0.1 0.4125 0.970285 0.0166555 0.124443
0.411108 0.1 0.675 1.00311 0.0129037 0.116563
0.411108 0.1 -0.675 1.00319 0.0128352 0.0575965
0.467897 0.1 0.6375 0.999158 0.0131453 0.12001
0.467897 0.1 -0.6375 0.999306 0.0130534 0.0539663
0.075776 0.1 -0.7875 1.00208 0.0150721 0.0804174
0.075776 0.1 0.7875 1.0021 0.0150741 0.0939754
0.350249 0.1 -0.7125 1.00684 0.0126564 0.0617004
0.350249 0.1 0.7125 1.00683 0.0126999 0.112617
0.791054 0.1 0.0690034 0.938165 0.0213488 0.0937867
0.522865 0.1 0.6 0.993648 0.0137262 0.123228
0.522865 0.1 -0.6 0.993936 0.0135975 0.0504651
0.797314 0.1 -3.03577e-18 0.935751 0.021759 0.084766
0.797314 0.1 -0.075 0.936121 0.0217159 0.074965
0.756814 0.1 0.2625 0.949213 0.0196683 0.116398
0.756814 0.1 -0.2625 0.950186 0.0194441 0.0544285
0.287374 0.1 -0.75 1.00888 0.0132671 0.0658262
0.287374 0.1 0.75 1.00888 0.0132862 0.108565
0.574156 0.1 0.5625 0.987882 0.0143394 0.125908
0.574156 0.1 -0.5625 0.988304 0.0141776 0.0474701
0 0.1 0.80701 0.996195 0 0.0871557
0 0.1 -0.80701 0.996195 0 0.0871557
0.714971 0.1 -0.375 0.96237 0.0177068 0.0468992
0.714971 0.1 0.375 0.961381 0.0179653 0.124787
0.0363518 0.1 0.80701 0.999003 0.00716382 0.0904278
0.0363518 0.1 -0.80701 0.998994 0.00716285 0.0839237
0.797314 0.1 0.15 0.937033 0.0216588 0.104753
0.797314 0.1 -0.15 0.937739 0.0214989 0.0652128
0.623803 0.1 0.525 0.980778 0.015275 0.128234
0.623803 0.1 -0.525 0.981403 0.0150658 0.0447262
0.219992 0.1 -0.7875 1.01078 0.0139628 0.0703997
0.219992 0.1 0.7875 1.0108 0.0139561 0.104048
0 0.1 0.825 0.996195 0 0.0871557
0 0.1 -0.825 0.996195 0 0.0871557
0.797314 0.1 0.225 0.939241 0.0214009 0.114264
0.797314 0.1 -0.225 0.940261 0.021158 0.0558583
0.756813 0.1 -0.3375 0.953422 0.0190087 0.0466716
0.756814 0.1 0.3375 0.952287 0.0192966 0.124419
0.67013 0.1 0.4875 0.973396 0.0162411 0.12997
0.67013 0.1 -0.4875 0.974208 0.0159899 0.0425384
0.835106 0.1 0.0375 0.926395 0.0234499 0.0900272
0.835106 0.1 -0.0375 0.926598 0.0234035 0.0791816
0.150379 0.1 -0.825 1.00664 0.0144667 0.0750495
0.150379 0.1 0.825 1.00666 0.0144621 0.0993669
0.835106 0.1 0.1125 0.927273 0.0233592 0.100799
0.835106 0.1 -0.1125 0.92789 0.02322 0.0684701
0 0.1 -0.84299 0.996195 0 0.0871557
0 0.1 0.84299 0.996195 0 0.0871557
0.0363518 0.1 -0.84299 0.999003 0.00714563 0.0837863
0.0363518 0.1 0.84299 0.999013 0.00714497 0.0905605
0.714971 0.1 -0.45 0.96585 0.0172144 0.0407558
0.714971 0.1 0.45 0.96481 0.0175151 0.131192
0.797314 0.1 0.3 0.942321 0.02102 0.12328
0.797314 0.1 -0.3 0.943585 0.0206953 0.047084
0.467897 0.1 0.7125 1.00072 0.0128535 0.122258
0.467897 0.1 -0.7125 1.00086 0.0127639 0.0518091
0.522865 0.1 0.675 0.995651 0.0133893 0.126022
0.522865 0.1 -0.675 0.99593 0.0132585 0.0478028
0.411108 0.1 -0.75 1.00439 0.0125865 0.0558872
0.411108 0.1 0.75 1.00432 0.0126513 0.11833
0.835106 0.1 -0.1875 0.930232 0.02289 0.0580963
0.835107 0.1 0.1875 0.929222 0.0231315 0.111306
0.574156 0.1 0.6375 0.9903 0.0139623 0.12931
0.574156 0.1 -0.6375 0.990711 0.0137927 0.0442404
0.350249 0.1 -0.7875 1.00768 0.0124513 0.060384
0.350249 0.1 0.7875 1.00768 0.0124899 0.113959
0.756814 0.1 0.4125 0.955952 0.0188205 0.131755
0.756814 0.1 -0.4125 0.957187 0.0184807 0.0395946
0.623803 0.1 0.6 0.983674 0.0148453 0.132321
0.623803 0.1 -0.6 0.984291 0.0146249 0.0408555
0.075776 0.1 0.8625 1.00213 0.0150357 0.0942519
0.075776 0.1 -0.8625 1.0021 0.0150371 0.0801311
0.871687 0.1 -0.00399773 0.917148 0.0253378 0.0830923
0.287374 0.1 -0.825 1.00951 0.013111 0.064854
0.287374 0.1 0.825 1.00952 0.0131247 0.109545
0.871687 0.1 0.075 0.917291 0.0253602 0.095924
0.871687 0.1 -0.075 0.91776 0.0252455 0.072596
0.67013 0.1 0.5625 0.976723 0.0157659 0.134807
0.67013 0.1 -0.5625 0.977533 0.0154985 0.0379581
0.835106 0.1 0.2625 0.932195 0.0227597 0.121358
0.835106 0.1 -0.2625 0.933544 0.0224169 0.0482723
0.797314 0.1 0.375 0.946154 0.0205185 0.131631
0.797314 0.1 -0.375 0.947588 0.0201221 0.0390438
0 0.1 -0.88201 0.996195 0 0.0871557
0 0.1 0.88201 0.996195 0 0.0871557
0.0363518 0.1 0.88201 0.999013 0.00714497 0.0905605
0.0363518 0.1 -0.88201 0.999003 0.00714563 0.0837863
0.871687 0.1 0.15 0.918858 0.0251714 0.10742
0.871687 0.1 -0.15 0.919789 0.0249362 0.0612131
0.714971 0.1 0.525 0.968569 0.0169935 0.136866
0.714971 0.1 -0.525 0.969629 0.0166628 0.035384
0.219992 0.1 0.8625 1.01121 0.0138459 0.104716
0.219993 0.1 -0.8625 1.01118 0.0138578 0.0697228
0 0.1 0.9 0.996195 0 0.0871557
0 0.1 -0.9 0.996195 0 0.0871557
0.756813 0.1 0.4875 0.960075 0.0182625 0.138338
0.756814 0.1 -0.4875 0.961363 0.0178764 0.0333579
0.871687 0.1 0.225 0.921588 0.0248168 0.118519
0.871687 0.1 -0.225 0.922941 0.0244577 0.0503233
0.835106 0.1 0.3375 0.936097 0.0222499 0.130773
0.835106 0.1 -0.3375 0.937685 0.0218105 0.0391709
0.90582 0.1 -0.0375 0.907734 0.0272501 0.0776029
0.905821 0.1 0.0375 0.907476 0.0273171 0.0901768
0.150379 0.1 0.9 1.00687 0.0143884 0.0997807
0.150379 0.1 -0.9 1.00685 0.014397 0.0746259
0.90582 0.1 0.1125 0.908536 0.0271932 0.102665
0.90582 0.1 -0.1125 0.909331 0.0269883 0.0651953
0.522865 0.1 -0.75 0.997945 0.0129092 0.0456415
0.522865 0.1 0.75 0.997676 0.0130376 0.128313
0.574156 0.1 0.7125 0.992761 0.013561 0.132135
0.574156 0.1 -0.7125 0.993164 0.0133921 0.0415862
0.797314 0.1 0.45 0.950588 0.0199099 0.139179
0.797314 0.1 -0.45 0.952137 0.0194554 0.0318616
0.467897 0.1 -0.7875 1.00243 0.0124692 0.0500777
0.467897 0.1 0.7875 1.00229 0.0125546 0.124075
0 0.1 0.91799 0.996195 0 0.0871557
0 0.1 -0.91799 0.996195 0 0.0871557
0.0363518 0.1 0.91799 0.99902 0.00712855 0.0906576
0.0363518 0.1 -0.91799 0.999009 0.00713059 0.0836843
0.623803 0.1 0.675 0.98665 0.0143877 0.135757
0.623803 0.1 -0.675 0.987261 0.0141618 0.0376406
0.411108 0.1 -0.825 1.0056 0.0123351 0.0545368
0.411108 0.1 0.825 1.00553 0.0123942 0.119737
0.871687 0.1 0.3 0.925404 0.0242985 0.129016
0.871687 0.1 -0.3 0.927101 0.0238197 0.0401366
0.67013 0.1 0.6375 0.980184 0.0152563 0.138922
0.67013 0.1 -0.6375 0.980993 0.0149772 0.0341106
0.90582 0.1 0.1875 0.910908 0.026882 0.114835
0.905821 0.1 -0.1875 0.912205 0.0265293 0.053202
0.350249 0.1 0.8625 1.00852 0.0122774 0.11501
0.350249 0.1 -0.8625 1.00852 0.0122447 0.0593595
0.835106 0.1 0.4125 0.940758 0.0216066 0.139366
0.835106 0.1 -0.4125 0.942523 0.0210932 0.030983
0.714971 0.1 0.6 0.972542 0.0164181 0.141746
0.714971 0.1 -0.6 0.973614 0.0160696 0.0308227
0.93886 0.1 -0.00399773 0.898007 0.0298119 0.0821834
0.075776 0.1 0.9375 1.00214 0.0150023 0.0944542
0.075776 0.1 -0.9375 1.00212 0.0150065 0.0799188
0.93886 0.1 0.075 0.898203 0.0298434 0.0969775
0.93886 0.1 -0.075 0.8988 0.0296774 0.0700874
0.756813 0.1 0.5625 0.964512 0.0176292 0.144056
0.756814 0.1 -0.5625 0.965827 0.0172161 0.0280018
0.90582 0.1 0.2625 0.914522 0.0263774 0.12646
0.905821 0.1 -0.2625 0.916266 0.0258818 0.0418769
0.287374 0.1 0.9 1.01013 0.0129641 0.110294
0.287374 0.1 -0.9 1.01011 0.0129554 0.0641139
0.871687 0.1 0.375 0.930165 0.0236253 0.138714
0.871687 0.1 -0.375 0.932123 0.0230431 0.0308582
0.93886 0.1 0.15 0.90009 0.0295879 0.110224
0.93886 0.1 -0.15 0.901276 0.0292469 0.0569883
0.797314 0.1 0.525 0.955472 0.0192131 0.145822
0.797314 0.1 -0.525 0.957092 0.0187147 0.0256288
0 0.1 0.95701 0.996195 0 0.0871557
0 0.1 -0.95701 0.996195 0 0.0871557
0.0363518 0.1 0.95701 0.99902 0.00712855 0.0906576
0.0363518 0.1 -0.95701 0.999009 0.00713059 0.0836843
0.219992 0.1 0.9375 1.0116 0.0137366 0.105209
0.219992 0.1 -0.9375 1.01156 0.0137531 0.06922
0.93886 0.1 0.225 0.903384 0.029109 0.122996
0.93886 0.1 -0.225 0.905112 0.0285931 0.0444843
0.90582 0.1 0.3375 0.919275 0.0256946 0.137313
0.905821 0.1 -0.3375 0.921369 0.0250623 0.0314197
0.835107 0.1 0.4875 0.946014 0.0208552 0.147008
0.835107 0.1 -0.4875 0.947906 0.0202823 0.0237876
0.969689 0.1 0.0375 0.888003 0.0324422 0.0903544
0.969689 0.1 -0.0375 0.888329 0.0323501 0.0759218
0.574156 0.1 0.7875 0.995226 0.0131507 0.134387
0.574156 0.1 -0.7875 0.995616 0.012984 0.0395008
0 0.1 0.975 0.996195 0 0.0871557
0 0.1 -0.975 0.996195 0 0.0871557
0.623803 0.1 0.75 0.989655 0.0139121 0.138536
0.623803 0.1 -0.75 0.990255 0.0136868 0.0350796
0.96969 0.1 0.1125 0.889267 0.0322788 0.104686
0.96969 0.1 -0.1125 0.890271 0.0319805 0.0616923
0.522865 0.1 -0.825 0.999942 0.0125563 0.043972
0.522865 0.1 0.825 0.999689 0.0126792 0.130107
0.67013 0.1 0.7125 0.98371 0.0147189 0.142299
0.67013 0.1 -0.7125 0.984515 0.0144373 0.0310021
0.871687 0.1 0.45 0.935693 0.0228143 0.147436
0.871687 0.1 -0.45 0.937837 0.0221534 0.0226266
0.467897 0.1 0.8625 1.00385 0.0122515 0.125473
0.467897 0.1 -0.8625 1.00397 0.0121739 0.0487629
0.714971 0.1 -0.675 0.977714 0.0154515 0.0270907
0.714971 0.1 0.675 0.976637 0.0158082 0.145806
0.93886 0.1 0.3 0.907991 0.0284128 0.135045
0.93886 0.1 -0.3 0.910183 0.0277303 0.0328223
0.150379 0.1 0.975 1.00707 0.0143174 0.100072
0.150379 0.1 -0.975 1.00704 0.0143291 0.0743253
0.969689 0.1 -0.1875 0.89375 0.0313522 0.0479695
0.969689 0.1 0.1875 0.892109 0.0318574 0.118637
0.411108 0.1 0.9 1.00672 0.0121387 0.120793
0.411108 0.1 -0.9 1.00677 0.012085 0.0535344
0.756813 0.1 0.6375 0.969142 0.0169514 0.148878
0.756813 0.1 -0.6375 0.970479 0.0165224 0.0235634
0.990306 0.1 3.46945e-18 0.882872 0.0337739 0.0817642
0 0.1 0.99299 0.996195 0 0.0871557
0 0.1 -0.99299 0.996195 0 0.0871557
0.990306 0.1 0.075 0.883101 0.0338068 0.0977709
0.990306 0.1 -0.075 0.8838 0.0335953 0.0680976
0.0363518 0.1 0.99299 0.999024 0.0071138 0.090721
0.0363518 0.1 -0.99299 0.999013 0.00711756 0.0836163
0.905821 0.1 0.4125 0.924976 0.0248433 0.147208
0.905821 0.1 -0.4125 0.927349 0.0241057 0.0220869
0.797314 0.1 0.6 0.960658 0.0184494 0.151492
0.797314 0.1 -0.6 0.96232 0.0179247 0.0203952
0.350249 0.1 0.9375 1.00933 0.0120715 0.115779
0.350249 0.1 -0.9375 1.00932 0.012043 0.0586165
0.990306 0.1 0.15 0.88525 0.0334977 0.112385
0.990306 0.1 -0.15 0.886641 0.0330616 0.0536556
0.969689 0.1 -0.2625 0.898662 0.030477 0.0350354
0.969689 0.1 0.2625 0.896443 0.0311825 0.131937
0.835106 0.1 0.5625 0.9517 0.0200173 0.153609
0.835106 0.1 -0.5625 0.953664 0.0194019 0.0176707
0.93886 0.1 0.375 0.913755 0.0275152 0.146148
0.93886 0.1 -0.375 0.916316 0.0266906 0.0222401
0.075776 0.1 1.0125 1.00215 0.0149723 0.0945862
0.075776 0.1 -1.0125 1.00212 0.0149799 0.0797771
0.990306 0.1 0.225 0.889005 0.0329166 0.126467
0.990306 0.1 -0.225 0.891039 0.0322589 0.039884
0.287374 0.1 0.975 1.01072 0.0128058 0.110818
0.287374 0.1 -0.975 1.01069 0.0128012 0.0635971
0.871687 0.1 0.525 0.941792 0.0218934 0.155054
0.871687 0.1 -0.525 0.944054 0.0211735 0.0155292
1.02149 0.1 -0.0369628 0.873449 0.0363961 0.0735528
1.02149 0.1 0.0369628 0.871135 0.0370738 0.0902645
0.969689 0.1 -0.3375 0.904851 0.0293743 0.0231409
0.96969 0.1 0.3375 0.90215 0.0302651 0.144316
1.02149 0.1 0.110888 0.872539 0.0368912 0.105881
1.02149 0.1 -0.110888 0.873696 0.0365135 0.0590436
0.90582 0.1 0.4875 0.931438 0.0238519 0.155932
0.905821 0.1 -0.4875 0.933969 0.023039 0.0139059
0 0.1 1.03201 0.996195 0 0.0871557
0 0.1 -1.03201 0.996195 0 0.0871557
0.0363518 0.1 1.03201 0.999024 0.0071138 0.090721
0.0363518 0.1 -1.03201 0.999013 0.00711756 0.0836163
0.67013 0.1 0.7875 0.987239 0.0141711 0.144947
0.67013 0.1 -0.7875 0.988025 0.0138913 0.0286201
0.623803 0.1 -0.825 0.993213 0.0132087 0.0331556
0.623803 0.1 0.825 0.992636 0.0134287 0.140674
0.990306 0.1 0.3 0.894259 0.0320718 0.139737
0.990306 0.1 -0.3 0.896857 0.0312037 0.0270601
0.219992 0.1 -1.0125 1.01191 0.0136469 0.0688854
0.219992 0.1 1.0125 1.01196 0.0136287 0.105534
0.574156 0.1 -0.8625 0.998017 0.0125752 0.0379655
0.574157 0.1 0.8625 0.997652 0.0127339 0.136082
0.714971 0.1 0.75 0.98077 0.0151785 0.149042
0.714971 0.1 -0.75 0.981838 0.0148217 0.0241821
1.02149 0.1 0.184814 0.875699 0.0364003 0.121091
1.02149 0.1 -0.184814 0.877599 0.0357643 0.044092
0.756814 0.1 0.7125 0.973864 0.0162429 0.152783
0.756813 0.1 -0.7125 0.975205 0.015811 0.0200467
0.522865 0.1 0.9 1.00165 0.0123217 0.131423
0.522865 0.1 -0.9 1.00189 0.0122048 0.0427745
0.93886 0.1 0.45 0.920467 0.0264423 0.156092
0.93886 0.1 -0.45 0.923289 0.0255111 0.0128696
1.04168 0.1 0 0.864336 0.0391475 0.0821555
1.04168 0.1 0.0729162 0.864853 0.0391143 0.0982909
1.04168 0.1 -0.0729162 0.865649 0.0388489 0.0660782
0.797314 0.1 0.675 0.96601 0.0176432 0.156157
0.797314 0.1 -0.675 0.967695 0.0171074 0.0161821
0.467897 0.1 0.9375 1.00536 0.0119551 0.126468
0.467897 0.1 -0.9375 1.00545 0.011881 0.0478454
0 0.1 1.05 0.996195 0 0.0871557
0 0.1 -1.05 0.996195 0 0.0871557
0.835106 0.1 0.6375 0.957649 0.0191186 0.159121
0.835106 0.1 -0.6375 0.959661 0.0184835 0.0126681
1.04168 0.1 0.145832 0.867177 0.0387618 0.114167
1.04168 0.1 -0.145832 0.868761 0.0382147 0.0503909
1.02149 0.1 0.25874 0.880528 0.035616 0.135606
1.02149 0.1 -0.25874 0.883112 0.0347227 0.0299844
0.969689 0.1 0.4125 0.909019 0.0291329 0.155567
0.969689 0.1 -0.4125 0.912081 0.0281022 0.0125301
0.411108 0.1 0.975 1.00786 0.0118873 0.121515
0.411108 0.1 -0.975 1.00789 0.0118385 0.0528616
0.871687 0.1 0.6 0.948267 0.0208915 0.161504
0.871687 0.1 -0.6 0.950614 0.0201357 0.00964015
1.0579 0.1 -0.0360525 0.859723 0.0406208 0.0715033
1.0579 0.1 0.0360525 0.858647 0.0409417 0.0900632
0.990306 0.1 0.375 0.900842 0.0309826 0.151945
0.990306 0.1 -0.375 0.903891 0.0299367 0.0154365
0.150379 0.1 1.05 1.00725 0.0142493 0.100245
0.150379 0.1 -1.05 1.00722 0.0142628 0.0741416
1.0579 0.1 -0.108157 0.86135 0.0403082 0.0572347
1.0579 0.1 0.108157 0.860068 0.0407503 0.10649
1.04168 0.1 0.218749 0.871252 0.0380912 0.129486
1.04168 0.1 -0.218749 0.87358 0.0372649 0.03541
0.90582 0.1 0.5625 0.9384 0.0227564 0.163408
0.905821 0.1 -0.5625 0.941041 0.0218851 0.00703366
0 0.1 -1.06799 0.996195 0 0.0871557
0 0.1 1.06799 0.996195 0 0.0871557
0.0363518 0.1 -1.06799 0.999015 0.00710634 0.083581
0.0363518 0.1 1.06799 0.999025 0.00710192 0.0907511
0.350249 0.1 1.0125 1.01011 0.0118657 0.116279
0.350249 0.1 -1.0125 1.01008 0.0118434 0.058138
1.0579 0.1 -0.180262 0.865411 0.0394773 0.0414988
1.0579 0.1 0.180262 0.863301 0.0402197 0.122504
1.02149 0.1 0.332665 0.88689 0.0345424 0.149138
1.02149 0.1 -0.332665 0.890063 0.0334152 0.0170077
0.93886 0.1 0.525 0.92788 0.0252317 0.164758
0.93886 0.1 -0.525 0.930883 0.0242179 0.00486185
1.08012 0.1 1.70581e-17 0.850822 0.043595 0.0815066
1.04168 0.1 0.291665 0.876968 0.0371119 0.143954
1.04168 0.1 -0.291665 0.879967 0.0360174 0.0214335
1.08012 0.1 0.0709941 0.851326 0.0435695 0.0985007
1.08012 0.1 -0.074001 0.852305 0.0432465 0.0631258
0.969689 0.1 -0.4875 0.92011 0.0266882 0.00320213
0.96969 0.1 0.4875 0.916805 0.0278238 0.165443
1.0579 0.1 0.252367 0.868268 0.0393669 0.137812
1.0579 0.1 -0.252367 0.871146 0.0383213 0.0266271
0.990306 0.1 -0.45 0.911899 0.0285041 0.00516985
0.990306 0.1 0.45 0.908512 0.0296839 0.162859
0.287374 0.1 -1.05 1.01124 0.0126475 0.0632886
0.287374 0.1 1.05 1.01128 0.0126485 0.111131
1.08012 0.1 0.141988 0.853699 0.0431935 0.115236
1.08012 0.1 -0.141988 0.855445 0.0425527 0.0480435
0.075776 0.1 1.0875 1.00215 0.0149481 0.0946488
0.075776 0.1 -1.0875 1.00213 0.0149571 0.0797038
0.714971 0.1 0.825 0.984863 0.0145424 0.151475
0.714971 0.1 -0.825 0.9859 0.0141921 0.0220694
0.756813 0.1 0.7875 0.978581 0.0155237 0.155782
0.756813 0.1 -0.7875 0.979903 0.0150952 0.0174302
0.67013 0.1 0.8625 0.990703 0.0136177 0.146889
0.67013 0.1 -0.8625 0.991455 0.0133472 0.0269351
0.797314 0.1 -0.75 0.973088 0.0162824 0.0129776
0.797314 0.1 0.75 0.97141 0.0168154 0.159814
0.623803 0.1 0.9 0.995538 0.0129473 0.142196
0.623803 0.1 -0.9 0.99608 0.0127348 0.0318369
0.835106 0.1 0.7125 0.963717 0.018186 0.163525
0.835107 0.1 -0.7125 0.965747 0.0175454 0.0087875
0.574156 0.1 0.9375 0.999995 0.0123252 0.13725
0.574156 0.1 -0.9375 1.00033 0.0121709 0.0369494
1.02149 0.1 -0.406591 0.898196 0.031897 0.00538934
1.02149 0.1 0.406591 0.894572 0.0332124 0.161447
1.08012 0.1 -0.212982 0.860457 0.0415005 0.0322314
1.08012 0.1 0.212982 0.857883 0.0424688 0.131407
1.10076 0.1 -0.0349809 0.843207 0.0462237 0.0724775
1.10076 0.1 0.0349809 0.842757 0.0463818 0.0900043
0.871687 0.1 0.675 0.954955 0.0198393 0.166755
0.871687 0.1 -0.675 0.957356 0.0190732 0.00497996
1.04168 0.1 0.364581 0.884158 0.035841 0.1573