# kMean  POINT_DATA 91129
# x  y  z  kMean
0 0 0 0.00545212
0 0.00368111 0 0.00375
0 0.00749587 0 0.00375
0 0.0114491 0 0.00375
0 0.0155459 0 0.00375
0 0.0197915 0 0.00375
0 0.0241911 0 0.00375
0 0.0287506 0 0.00375
0 0.0334755 0 0.00375
0 0.038372 0 0.00375
0 0.0434463 0 0.00375
0 0.0487048 0 0.00375
0 0.0541543 0 0.00375
0 0.0598016 0 0.00375
0 0.0656539 0 0.00375
0 0.0717187 0 0.00375
0.075776 0.00184055 0 0.00928511
0.075776 0.00558849 0 0.0032912
0.075776 0.00947248 -3.46945e-18 0.00302038
0.075776 0.0134975 -3.46945e-18 0.00340458
0.075776 0.0176687 3.46945e-18 0.00357531
0 0.0780037 0 0.00375
0.075776 0.0219913 3.46945e-18 0.00364295
0.075776 0.0264709 3.46945e-18 0.00367738
0.075776 0.031113 -3.46945e-18 0.00369715
0.075776 0.0359237 -3.46945e-18 0.0037097
0 0.0845169 0 0.00375
0.075776 0.0409092 0 0.00371824
0.075776 0.0460755 -3.46945e-18 0.00372437
0 0.0912666 0 0.00375
0.075776 0.0514296 -3.46945e-18 0.00372894
0.075776 0.0569779 0 0.00373245
0 0.0982613 0 0.00375
0.075776 0.0627278 0 0.00373522
0.075776 0.0686863 0 0.00373745
0 0.10551 0 0.00375
0.075776 0.0748612 3.46945e-18 0.00373933
0.075776 0.0812603 -3.46945e-18 0.00374094
0 0.113022 0 0.00375
0.075776 0.0878918 3.46945e-18 0.00374233
0 0.120806 0 0.00375
0.075776 0.0947639 3.46945e-18 0.0037435
0.075776 0.101886 -3.46945e-18 0.0037445
0 0.128874 0 0.00375
0.075776 0.109266 3.46945e-18 0.00374535
0 0.137234 0 0.00375
0.075776 0.116914 3.46945e-18 0.00374606
0 0.145897 0 0.00375
0.075776 0.12484 0 0.00374667
0.151552 0 0 0.00573602
0.151552 0.00368111 0 0.00406354
0.151552 0.00749587 0 0.00254579
0.151552 0.0114491 0 0.0029481
0.151552 0.0155459 0 0.00330798
0.151552 0.0197915 0 0.00347354
0.075776 0.133054 0 0.00374719
0.151552 0.0241911 0 0.00355847
0.151552 0.0287506 0 0.00361068
0 0.154876 0 0.00375
0.151552 0.0334755 0 0.00364484
0.151552 0.038372 0 0.00366824
0.151552 0.0434463 0 0.00368491
0.151552 0.0487048 0 0.00369719
0.075776 0.141566 0 0.00374764
0.151552 0.0541543 0 0.00370652
0.151552 0.0598016 0 0.00371377
0 0.16418 0 0.00375
0.151552 0.0656539 0 0.00371955
0.151552 0.0717187 0 0.00372424
0.075776 0.150387 0 0.00374805
0.151552 0.0780037 0 0.00372812
0.151552 0.0845169 0 0.00373137
0 0.173822 0 0.00375
0.075776 0.159528 0 0.00374845
0.151552 0.0912666 0 0.00373411
0.151552 0.0982613 0 0.00373642
0 0.183814 0 0.00375
0.151552 0.10551 0 0.00373839
0.075776 0.169001 3.46945e-18 0.00374884
0.151552 0.113022 0 0.00374008
0.151552 0.120806 0 0.00374153
0 0.194169 0 0.00375
0.075776 0.178818 3.46945e-18 0.00374921
0.151552 0.128874 0 0.00374278
0.075776 0.188992 3.46945e-18 0.00374959
0.151552 0.137234 0 0.00374388
0 0.2049 0 0.00375
0.151552 0.145897 0 0.00374485
0.075776 0.199535 0 0.00374996
0 0.21602 0 0.00375
0.151552 0.154876 0 0.00374571
0.219992 0.00184055 0 0.00246006
0.219992 0.00558849 0 0.00155995
0.219992 0.00947248 -3.46945e-18 0.00240547
0.219992 0.0134975 3.46945e-18 0.00300264
0.219992 0.0176687 0 0.0032774
0.219992 0.0219913 0 0.00341935
0.219993 0.0264709 -3.46945e-18 0.00350986
0.219992 0.031113 -3.46945e-18 0.00357009
0.219992 0.0359238 3.46945e-18 0.00361142
0.151552 0.16418 0 0.00374651
0.075776 0.21046 0 0.00375033
0.219992 0.0409092 3.46945e-18 0.00364065
0.219992 0.0460755 0 0.00366198
0.219993 0.0514296 -3.46945e-18 0.00367801
0.219992 0.0569779 0 0.00369038
0 0.227544 0 0.00375
0.219992 0.0627277 3.46945e-18 0.00370013
0.219992 0.0686863 0 0.00370797
0.151552 0.173822 0 0.00374723
0.219992 0.0748612 3.46945e-18 0.00371438
0.075776 0.221782 0 0.00375068
0.219992 0.0812603 3.46945e-18 0.00371968
0.219992 0.0878917 -3.46945e-18 0.00372411
0.151552 0.183814 0 0.00374791
7.47806e-17 0.239487 0 0.00375
0.219992 0.0947639 3.46945e-18 0.00372784
0.219993 0.101886 3.46945e-18 0.00373101
0.075776 0.233516 0 0.00375101
0.219993 0.109266 0 0.00373372
0.151552 0.194169 0 0.00374854
0.219993 0.116914 0 0.00373605
0 0.251863 0 0.00375
0.219993 0.12484 0 0.00373808
0.151552 0.2049 0 0.00374913
0.075776 0.245675 0 0.00375129
0.219992 0.133054 3.46945e-18 0.00373984
0.219992 0.141565 0 0.00374139
0.151552 0.21602 0 0.0037497
0 0.264688 0 0.00375
0.219992 0.150387 3.46945e-18 0.00374276
0.075776 0.258275 3.46945e-18 0.00375151
0.219992 0.159528 -3.46945e-18 0.00374398
0.151552 0.227544 0 0.00375022
0.219992 0.169001 3.46945e-18 0.00374508
0 0.27798 0 0.00375
0.075776 0.271334 3.46945e-18 0.00375168
0.151552 0.239487 3.70071e-18 0.00375071
0.219992 0.178818 3.46945e-18 0.00374608
0.288433 0 0 0.00167072
0.288433 0.00368111 0 0.00146309
0.288433 0.00749587 0 0.00180192
0.288433 0.0114491 0 0.00266168
0.288433 0.0155459 3.70071e-18 0.00311098
0.288433 0.0197915 0 0.00330742
0.288433 0.0241911 3.70071e-18 0.00340925
0.288433 0.0287506 0 0.00348279
0.219992 0.188991 0 0.00374698
0.288433 0.0334755 0 0.00353924
0.288433 0.038372 0 0.00358193
0.288433 0.0434463 0 0.00361428
7.47806e-17 0.291753 0 0.00375
0.288433 0.0487048 0 0.00363909
0.288433 0.0541543 0 0.00365843
0.151552 0.251863 0 0.00375114
0.288433 0.0598016 3.70071e-18 0.00367374
0.075776 0.284866 0 0.00375178
0.288433 0.0656539 3.70071e-18 0.00368605
0.219992 0.199534 0 0.00374781
0.288433 0.0717187 0 0.00369607
0.288433 0.0780037 0 0.00370433
0.288433 0.0845169 0 0.00371117
0.288433 0.0912666 0 0.0037169
0.219992 0.21046 -3.46945e-18 0.00374858
0.288433 0.0982613 0 0.00372178
0.151552 0.264688 3.70071e-18 0.00375152
0 0.306027 0 0.00375
0.288433 0.10551 0 0.00372609
0.075776 0.29889 3.46945e-18 0.00375179
0.288433 0.113022 0 0.00372989
0.219993 0.221782 0 0.00374931
0.288433 0.120806 0 0.00373324
0.288433 0.128874 0 0.00373618
0.151552 0.27798 0 0.00375185
0.288433 0.137234 0 0.00373878
0 0.320819 0 0.00375
0.219992 0.233515 -3.46945e-18 0.00374999
0.075776 0.313423 -3.46945e-18 0.00375175
0.288433 0.145897 0 0.00374108
0.288433 0.154876 0 0.00374311
0.151552 0.291753 0 0.00375211
0.219993 0.245675 0 0.00375062
0.288433 0.16418 0 0.0037449
0 0.336148 0 0.00375
0.288433 0.173822 0 0.00374648
0.075776 0.328484 -3.46945e-18 0.00375168
0.219993 0.258275 -3.46945e-18 0.00375119
0.151552 0.306027 0 0.00375231
0.288433 0.183814 0 0.00374786
0.288433 0.194169 0 0.00374907
0.219992 0.271334 3.46945e-18 0.00375172
0.350249 0.00184056 -3.46945e-18 0.00093944
0.350249 0.00558849 0 0.00097329
0.350249 0.00947248 3.46945e-18 0.00229558
0.350249 0.0134975 0 0.00294926
0.350249 0.0176687 0 0.00321889
0.350249 0.0219913 0 0.00332007
0.350249 0.0264708 3.46945e-18 0.00339585
0.350249 0.031113 0 0.00346378
0 0.352034 0 0.00375
0.350249 0.0359238 0 0.00351924
0.075776 0.344091 0 0.00375161
0.350249 0.0409091 0 0.00356289
0.350249 0.0460756 3.46945e-18 0.00359703
0.288433 0.2049 0 0.00375014
0.350249 0.0514296 0 0.00362389
0.151552 0.320819 0 0.00375246
0.350249 0.0569779 0 0.00364523
0.350249 0.0627277 3.46945e-18 0.00366239
0.350249 0.0686863 3.46945e-18 0.00367635
0.350249 0.0748612 3.46945e-18 0.00368781
0.350249 0.0812603 0 0.00369731
0.219992 0.284867 0 0.00375219
0.288433 0.21602 0 0.0037511
0.350249 0.0878917 0 0.00370518
0.350249 0.094764 0 0.00371179
0.350249 0.101886 0 0.00371762
0.350249 0.109266 0 0.00372291
0.288433 0.227544 0 0.00375195
0.075776 0.360265 3.46945e-18 0.00375159
0 0.368496 0 0.00375
0.151552 0.336148 0 0.00375258
0.350249 0.116914 3.46945e-18 0.00372762
0.219992 0.29889 0 0.00375261
0.370854 0.0241911 1.54074e-33 0.00337345
0.350249 0.12484 0 0.00373177
0.350249 0.133054 0 0.00373544
0.288433 0.239487 -9.25154e-19 0.00375272
0.350249 0.141566 3.46945e-18 0.0037387
0.350249 0.150387 3.46945e-18 0.0037416
0.288433 0.251863 0 0.00375341
0.219992 0.313423 0 0.00375298
0.151552 0.352034 0 0.00375272
0.075776 0.377027 0 0.00375165
0.350249 0.159528 0 0.00374413
0 0.385557 0 0.00375
0.350249 0.169001 0 0.00374635
0.288433 0.264688 0 0.00375405
0.350249 0.178818 0 0.00374828
0.219992 0.328484 0 0.0037533
0.350249 0.188992 0 0.00374992
0.151552 0.368496 0 0.00375289
0.288433 0.27798 3.70071e-18 0.00375464
0.075776 0.394397 0 0.00375175
0.350249 0.199535 0 0.00375133
7.47806e-17 0.403236 0 0.00375
0.219992 0.344091 0 0.0037536
0.350249 0.21046 -3.46945e-18 0.00375256
0.288433 0.291753 0 0.0037552
0.412065 9.08189e-19 3.08149e-33 0.000789579
0.412065 0.00368111 -2.31298e-18 0.000863291
0.412065 0.00749587 -2.31298e-18 0.001669
0.412065 0.0114491 -2.31298e-18 0.0027321
0.412065 0.0155459 -2.31298e-18 0.00316655
0.412065 0.0197915 0 0.00330236
0.412065 0.0241911 -3.08149e-33 0.00335554
0.412065 0.0264709 0 0.0033794
0.412065 0.0287506 -2.31298e-18 0.00340325
0.412065 0.0334755 -2.31298e-18 0.00345684
0.412065 0.038372 -2.31298e-18 0.00350653
0.151552 0.385557 0 0.00375311
0.412065 0.0434463 0 0.00354868
0.350249 0.221782 0 0.00375362
0.412065 0.0487048 0 0.00358326
0.412065 0.0541543 -3.08149e-33 0.00361138
0.412065 0.0569779 0 0.00362283
0.412065 0.0598016 -2.31298e-18 0.00363427
0.412065 0.0656539 -2.31298e-18 0.00365298
0.412065 0.0717187 -2.31298e-18 0.00366836
0.075776 0.412396 -3.46945e-18 0.00375184
0.412065 0.0780037 -2.31298e-18 0.00368106
0.288433 0.306027 0 0.00375574
0.412065 0.0845169 -2.31298e-18 0.00369163
0.350249 0.233516 3.46945e-18 0.00375455
0 0.421557 0 0.00375
0.412065 0.0912666 -2.31298e-18 0.00370063
0.219992 0.360265 3.46945e-18 0.0037539
0.412065 0.0982613 0 0.0037086
0.412065 0.10551 0 0.00371583
0.412065 0.113022 -2.31298e-18 0.00372236
0.350249 0.245675 0 0.00375537
0.412065 0.120806 0 0.00372821
0.151552 0.403236 0 0.00375335
0.288433 0.320819 0 0.00375626
0.412065 0.128874 -2.31298e-18 0.00373341
0.412065 0.137234 0 0.00373803
0.350249 0.258275 -3.46945e-18 0.00375611
0.219992 0.377026 0 0.00375423
0.412065 0.145897 -2.31298e-18 0.00374211
0.075776 0.431051 0 0.0037519
0.412065 0.154876 -2.31298e-18 0.00374568
0 0.440544 0 0.00375
0.288433 0.336148 0 0.00375675
0.350249 0.271334 0 0.0037568
0.412065 0.16418 -2.31298e-18 0.00374879
0.412065 0.173822 -2.31298e-18 0.00375148
0.151552 0.421557 0 0.00375359
0.412065 0.183814 -2.31298e-18 0.00375379
0.350249 0.284867 3.46945e-18 0.00375746
0.219992 0.394397 0 0.0037546
0.288433 0.352034 3.70071e-18 0.00375723
0.412065 0.194169 0 0.00375578
0.075776 0.450382 0 0.00375194
0.412065 0.2049 -2.31298e-18 0.00375748
0 0.46022 0 0.00375
0.350249 0.29889 3.46945e-18 0.00375813
0.412065 0.21602 0 0.00375893
0.151552 0.440544 0 0.00375381
0.219993 0.412396 3.46945e-18 0.00375499
0.467897 0.00184056 -3.46945e-18 0.000650175
0.467897 0.00558849 0 0.000903242
0.288433 0.368496 0 0.00375772
0.467897 0.00947248 0 0.00249912
0.467897 0.0134975 0 0.00316918
0.467897 0.0176687 3.46945e-18 0.00331739
0.467897 0.0219913 -3.46945e-18 0.00334852
0.467897 0.0264709 3.46945e-18 0.00335808
0.467897 0.0311131 3.46945e-18 0.00339901
0.467897 0.0359238 -3.46945e-18 0.00345016
0.467897 0.038372 0 0.00347926
0.467897 0.0409092 3.46945e-18 0.00349865
0.350249 0.313423 0 0.00375881
0.467897 0.0460755 0 0.00354049
0.467897 0.0514296 3.46945e-18 0.00357541
0.412065 0.227544 -2.31298e-18 0.00376017
0.467897 0.0569779 0 0.00360422
0.467897 0.0627277 -3.46945e-18 0.00362796
0.467897 0.0686863 3.46945e-18 0.00364753
0.467897 0.0748612 0 0.00366369
0.467897 0.0812603 0 0.00367706
0.467897 0.0878918 3.46945e-18 0.00368833
0.075776 0.470415 3.46945e-18 0.00375197
0.412065 0.239487 -2.31298e-18 0.00376123
0.467897 0.0947639 -3.46945e-18 0.00369833
0.467897 0.101886 3.46945e-18 0.00370751
0.350249 0.328483 0 0.00375948
0.467897 0.109266 0 0.00371588
0 0.48061 0 0.00375
0.288433 0.385557 0 0.00375823
0.467897 0.116914 0 0.00372344
0.412065 0.251863 -2.31298e-18 0.00376216
0.219992 0.431051 0 0.00375537
0.467897 0.12484 0 0.00373022
0.151552 0.46022 0 0.00375401
0.467897 0.133054 3.46945e-18 0.00373625
0.467897 0.141566 3.46945e-18 0.00374159
0.412065 0.264688 -2.31298e-18 0.00376298
0.350249 0.344091 -3.46945e-18 0.00376014
0.467897 0.150387 3.46945e-18 0.00374627
0.467897 0.154876 0 0.00374985
0.467897 0.159528 3.46945e-18 0.00375034
0.288433 0.403236 0 0.00375874
0.075776 0.491175 0 0.00375199
0.412065 0.27798 -2.31298e-18 0.00376374
0.467897 0.169001 0 0.00375385
0.467897 0.178818 3.46945e-18 0.00375685
0.219992 0.450382 0 0.00375574
6.73026e-17 0.501741 3.70071e-18 0.00375
0.350249 0.360265 0 0.00376079
0.151552 0.48061 0 0.00375419
0.467897 0.188991 0 0.00375946
0.412065 0.291753 0 0.00376447
0.467897 0.199535 0 0.00376169
0.288433 0.421557 0 0.00375927
0.467897 0.21046 0 0.00376357
0.412065 0.306027 0 0.00376518
0.350249 0.377027 0 0.00376144
0.467897 0.221782 3.46945e-18 0.00376516
0.075776 0.51269 0 0.00375202
0.219993 0.470415 3.46945e-18 0.00375607
0.467897 0.227544 0 0.00376768
0.412065 0.320819 -2.31298e-18 0.00376589
0.467897 0.233515 0 0.00376649
6.73026e-17 0.523639 3.70071e-18 0.00375
0.523729 0 0 0.00057126
0.523729 0.00368111 0 0.000726245
0.523729 0.00749587 -2.31298e-18 0.00176087
0.523729 0.0114491 0 0.00300678
0.523729 0.0155459 0 0.00341101
0.523729 0.0197915 -2.31298e-18 0.00343037
0.151552 0.501741 0 0.00375436
0.523729 0.0241911 0 0.00339471
0.523729 0.0287506 0 0.00338412
0.523729 0.0334755 0 0.00340999
0.523729 0.038372 -3.08149e-33 0.00345199
0.523729 0.0434463 0 0.00349584
0.523729 0.0487048 0 0.0035357
0.523729 0.0541543 0 0.00357009
0.288433 0.440544 0 0.00375979
0.523729 0.0598016 0 0.00359914
0.350249 0.394397 -3.46945e-18 0.00376208
0.523729 0.0656539 0 0.00362346
0.467897 0.245675 0 0.00376763
0.523729 0.0717187 0 0.00364373
0.523729 0.0780037 0 0.0036606
0.523729 0.0845169 0 0.00367489
0.523729 0.0912666 0 0.00368753
0.412065 0.336148 0 0.00376659
0.523729 0.0982613 0 0.00369908
0.523729 0.10551 -2.31298e-18 0.00370964
0.467897 0.258275 -3.46945e-18 0.00376862
0.523729 0.113022 0 0.00371924
0.523729 0.120806 -3.08149e-33 0.00372791
0.219993 0.491176 0 0.00375638
0.523729 0.12484 0 0.00373179
0.523729 0.128874 -2.31298e-18 0.00373567
0.075776 0.534986 0 0.00375206
0.467897 0.271334 3.46945e-18 0.0037695
0.350249 0.412396 -3.46945e-18 0.00376274
0.523729 0.137234 0 0.00374258
0.412065 0.352034 -2.31298e-18 0.00376728
0.288433 0.46022 0 0.00376029
0.523729 0.145897 0 0.00374868
0.151552 0.523639 0 0.00375453
0.523729 0.154876 -3.08149e-33 0.00375401
0 0.546332 0 0.00375
0.523729 0.159528 0 0.00375632
0.467897 0.284867 -3.46945e-18 0.0037703
0.523729 0.16418 -2.31298e-18 0.00375864
0.523729 0.173822 0 0.00376262
0.412065 0.368496 0 0.00376798
0.523729 0.183814 0 0.00376603
0.467897 0.29889 0 0.00377106
0.350249 0.431051 -3.46945e-18 0.0037634
0.219992 0.51269 0 0.00375668
0.523729 0.194169 0 0.00376894
0.288433 0.48061 0 0.00376076
0.523729 0.2049 0 0.0037714
0.467897 0.313423 3.46945e-18 0.0037718
0.075776 0.558091 0 0.0037521
0.412065 0.385557 0 0.00376867
0.523729 0.21602 -3.08149e-33 0.00377346
0.151552 0.546332 0 0.00375469
0 0.569849 0 0.00375
0.350249 0.450382 3.46945e-18 0.00376405
0.523729 0.227544 -3.08149e-33 0.00377519
0.467897 0.328483 0 0.00377254
0.523729 0.231525 1.54074e-33 0.00377566
0.574156 0.00184056 0 0.000497525
0.574156 0.00558849 0 0.000860667
0.574157 0.00947248 0 0.00277267
0.574156 0.0134975 -3.46945e-18 0.00356355
0.574156 0.0176687 -3.46945e-18 0.00357193
0.574156 0.0219913 0 0.00347086
0.574156 0.0264708 -3.46945e-18 0.00339595
0.574156 0.031113 0 0.00338271
0.574156 0.0359238 -3.46945e-18 0.00341
0.574157 0.0409092 0 0.00345207
0.523729 0.239487 3.70071e-18 0.00377662
0.574156 0.0460755 -3.46945e-18 0.00349525
0.574156 0.0514295 0 0.00353457
0.412065 0.403236 0 0.00376938
0.574157 0.0569779 0 0.00356874
0.574156 0.0627277 0 0.00359785
0.574156 0.0686863 0 0.00362238
0.219992 0.534986 0 0.00375697
0.288433 0.501741 0 0.0037612
0.574156 0.0748612 3.46945e-18 0.00364289
0.574156 0.0812603 0 0.00366005
0.467897 0.344091 0 0.00377327
0.574156 0.0878917 3.46945e-18 0.00367513
0.523729 0.251863 0 0.00377783
0.574157 0.0947639 0 0.00368908
0.574156 0.101886 0 0.00370189
0.574156 0.109266 0 0.00371356
0.574156 0.116914 0 0.00372415
0.412065 0.416977 -6.16298e-33 0.00376991
0.350249 0.470415 0 0.00376467
0.523729 0.264688 0 0.00377887
0.075776 0.582034 0 0.00375216
0.574156 0.12484 0 0.00373369
0.574156 0.133054 3.46945e-18 0.00374222
0.412065 0.421557 -2.31298e-18 0.00377009
0.151552 0.569849 0 0.00375486
0.467897 0.360265 -3.46945e-18 0.003774
0.574157 0.141566 -3.46945e-18 0.00374979
0.523729 0.27798 0 0.00377977
0.574156 0.150386 3.46945e-18 0.00375644
0 0.594219 0 0.00375
0.574156 0.159528 -3.46945e-18 0.00376225
0.574156 0.16418 0 0.00376619
0.288433 0.523639 1.2326e-32 0.00376162
0.574157 0.169001 0 0.00376726
0.523729 0.291753 0 0.00378058
0.219993 0.558091 3.46945e-18 0.00375725
0.467897 0.377026 0 0.00377474
0.574156 0.178818 3.46945e-18 0.00377156
0.412065 0.440544 -2.31298e-18 0.00377081
0.350249 0.491175 0 0.00376526
0.574156 0.188992 3.46945e-18 0.00377522
0.523729 0.306027 -3.08149e-33 0.00378134
0.574157 0.199535 0 0.00377831
0.574157 0.21046 0 0.0037809
0.075776 0.606847 0 0.00375221
0.467897 0.394397 0 0.00377549
0.151552 0.594219 0 0.00375503
0.523729 0.320819 0 0.00378206
0.574157 0.221782 -3.46945e-18 0.00378305
0.412065 0.46022 3.08149e-33 0.00377151
0.288433 0.546332 0 0.00376202
0 0.619475 0 0.00375
0.574156 0.233515 3.46945e-18 0.00378482
0.350249 0.51269 3.46945e-18 0.00376581
0.219992 0.582034 3.46945e-18 0.00375752
0.523729 0.336148 0 0.00378277
0.467897 0.412396 0 0.00377625
0.574156 0.245675 0 0.0037863
0.624584 0 0 0.000442896
0.624584 0.00368111 0 0.000646948
0.624584 0.00749587 0 0.00187985
0.624584 0.0114491 0 0.00335878
0.624584 0.0155459 0 0.00379511
0.624584 0.0197915 0 0.00368617
0.624584 0.0241911 -2.31298e-18 0.00352418
0.624584 0.0287506 0 0.00343044
0.624584 0.0334755 0 0.00340583
0.624584 0.038372 0 0.00342395
0.624584 0.0434463 -2.31298e-18 0.00345965
0.624584 0.0487048 0 0.00349918
0.624584 0.0541543 0 0.00353661
0.624584 0.0598016 0 0.00356991
0.624584 0.0656539 0 0.0035987
0.624584 0.0717187 0 0.00362316
0.624584 0.0780037 0 0.0036439
0.574157 0.258276 3.46945e-18 0.00378752
0.624584 0.0845169 0 0.00366202
0.523729 0.352034 0 0.00378347
0.624584 0.0912666 0 0.00367855
0.624584 0.0982613 0 0.00369385
0.412065 0.48061 3.08149e-33 0.00377219
0.624584 0.10551 0 0.00370788
0.624584 0.113022 -2.31298e-18 0.00372067
0.574156 0.271334 0 0.00378855
0.624584 0.120806 0 0.00373226
0.467897 0.431051 0 0.00377702
0.075776 0.632561 -3.46945e-18 0.00375228
0.624584 0.128874 0 0.00374268
0.151552 0.619475 0 0.0037552
0.288433 0.569849 0 0.0037624
0.350249 0.534985 0 0.00376633
0.624584 0.137234 -2.31298e-18 0.00375199
0.523729 0.368496 0 0.00378418
0.574156 0.284866 -3.46945e-18 0.00378944
0.624584 0.145897 0 0.00376023
0.467897 0.440544 0 0.00377898
0.624584 0.154876 0 0.00376746
0.219992 0.606847 -3.46945e-18 0.0037578
0 0.645647 0 0.00375
0.624584 0.16418 -3.08149e-33 0.00377375
0.574156 0.29889 -3.46945e-18 0.00379024
0.624584 0.173822 0 0.00377917
0.412065 0.501741 1.54074e-33 0.00377283
0.467897 0.450382 -3.46945e-18 0.0037778
0.523729 0.385557 0 0.0037849
0.624584 0.183814 0 0.00378379
0.624584 0.194169 0 0.00378771
0.574156 0.313423 0 0.00379096
0.624584 0.2049 0 0.00379098
0.350249 0.558091 3.46945e-18 0.00376683
0.288433 0.594219 0 0.00376277
0.624584 0.21602 0 0.00379371
0.523729 0.403236 0 0.00378564
0.574156 0.328483 -3.46945e-18 0.00379166
0.151552 0.645647 0 0.00375537
0.467897 0.470415 3.46945e-18 0.00377856
0.075776 0.659208 0 0.00375234
0.624584 0.227544 0 0.00379595
0.412065 0.523639 0 0.00377343
0.523729 0.41545 3.08149e-33 0.00378614
0.624584 0.239487 3.70071e-18 0.00379778
0.574156 0.344091 0 0.00379234
0.219992 0.632561 0 0.00375806
0.67013 0.00184055 0 0.000391609
0.67013 0.00558849 0 0.000841937
0.67013 0.00947248 0 0.00303648
0.67013 0.0134975 0 0.00403913
0.67013 0.0176687 -3.46945e-18 0.00397802
0.67013 0.0219913 0 0.00370374
0.67013 0.0264708 3.46945e-18 0.00351505
0.67013 0.0311131 0 0.003423
0.67013 0.0359237 0 0.00340643
0.67013 0.0409092 -3.46945e-18 0.00342817
0.67013 0.0460755 0 0.0034648
0.67013 0.0514296 3.46945e-18 0.00350404
0.523729 0.421557 -2.31298e-18 0.00378639
0.67013 0.056978 0 0.00354092
0 0.67277 0 0.00375
0.67013 0.0627277 0 0.00357376
0.624584 0.251863 0 0.00379928
0.67013 0.0686863 0 0.00360219
0.67013 0.0748612 3.46945e-18 0.00362633
0.67013 0.0812603 0 0.00364724
0.67013 0.0878917 0 0.00366633
0.67013 0.0947639 3.46945e-18 0.00368411
0.574156 0.360265 0 0.00379302
0.67013 0.101886 0 0.00370052
0.523729 0.431051 0 0.00378677
0.624584 0.264688 0 0.0038005
0.467897 0.491175 0 0.00377928
0.67013 0.109266 3.46945e-18 0.00371554
0.350249 0.582034 0 0.00376729
0.67013 0.116914 0 0.00372921
0.67013 0.12484 0 0.00374157
0.67013 0.133054 0 0.00375267
0.288433 0.619475 0 0.00376312
0.624584 0.27798 -3.08149e-33 0.00380152
0.412065 0.546332 1.54074e-33 0.003774
0.523729 0.440544 -3.08149e-33 0.00378716
0.67013 0.141566 3.46945e-18 0.00376255
0.685312 0.0241911 -7.70372e-34 0.00367742
0.685312 0.0434463 -7.70372e-34 0.00344984
0.67013 0.150387 0 0.00377128
0.574156 0.377026 -3.46945e-18 0.00379371
0.67013 0.159528 0 0.0037789
0.624584 0.291753 0 0.00380238
0.151552 0.67277 0 0.00375554
0.075776 0.686823 0 0.00375241
0.67013 0.169001 0 0.0037855
0.67013 0.178818 0 0.00379116
0.467897 0.51269 0 0.00377997
0.685312 0.113022 -7.70372e-34 0.00372427
0.219992 0.659208 0 0.00375833
0.624584 0.306027 0 0.00380312
0.67013 0.188991 0 0.00379597
0.574156 0.394397 3.46945e-18 0.00379442
0.523729 0.46022 0 0.00378792
0.685312 0.137234 -7.70372e-34 0.00376098
0.67013 0.199535 -3.46945e-18 0.0038
0.350249 0.606847 0 0.00376774
0 0.700877 0 0.00375
0.624584 0.320819 0 0.0038038
0.67013 0.21046 0 0.00380335
0.412065 0.569849 -2.31298e-18 0.00377452
0.67013 0.221782 -3.46945e-18 0.00380611
0.574157 0.412396 0 0.00379515
0.288433 0.645647 0 0.00376346
0.624584 0.336148 -3.08149e-33 0.00380444
0.67013 0.233515 3.46945e-18 0.00380835
0.467897 0.534986 0 0.00378061
0.523729 0.48061 0 0.00378866
0.624584 0.344091 0 0.00380474
0.67013 0.245675 0 0.00381017
0.715676 4.54095e-19 0 0.000350499
0.715676 0.00368111 0 0.000594326
0.715676 0.00749587 0 0.00199755
0.715676 0.0114491 0 0.00372029
0.715676 0.0155459 0 0.00425951
0.715676 0.0197915 0 0.00405962
0.715676 0.0241911 0 0.00375405
0.715676 0.0287506 0 0.00355173
0.715676 0.0334755 0 0.00345298
0.715676 0.038372 0 0.00342886
0.624584 0.352034 -2.31298e-18 0.00380505
0.715676 0.0434463 0 0.00344494
0.151552 0.700877 0 0.0037557
0.715676 0.0487048 0 0.00347698
0.715676 0.0541543 0 0.00351324
0.574156 0.43105 0 0.0037959
0.715676 0.0598016 0 0.00354827
0.67013 0.258275 0 0.00381163
0.715676 0.0656539 0 0.00357996
0.715676 0.0717187 0 0.00360761
0.075776 0.715441 0 0.00375249
0.715676 0.0780037 0 0.00363168
0.715676 0.0845169 0 0.00365343
0.219992 0.686824 0 0.00375858
0.715676 0.0912666 0 0.00367373
0.715676 0.0982613 0 0.00369264
0.67013 0.271334 -3.46945e-18 0.0038128
0.350249 0.632561 -3.46945e-18 0.00376816
0.412065 0.594219 3.08149e-33 0.00377501
0.715676 0.10551 0 0.00371009
0.715676 0.113022 0 0.00372606
0.624584 0.368496 0 0.00380567
0.523729 0.501741 0 0.00378938
0.715676 0.120806 0 0.0037406
0.715676 0.128874 0 0.00375372
0.67013 0.284867 0 0.00381376
0.467897 0.558091 3.46945e-18 0.0037812
0.715676 0.137234 0 0.00376548
0.574156 0.450382 0 0.00379666
0 0.730005 0 0.00375
0.715676 0.145897 0 0.00377593
0.288433 0.67277 0 0.00376379
0.715676 0.154876 0 0.00378513
0.67013 0.29889 0 0.00381455
0.624584 0.385557 0 0.00380631
0.715676 0.16418 -9.25187e-19 0.00379314
0.715676 0.173822 0 0.00380006
0.715676 0.183814 0 0.00380596
0.67013 0.313423 0 0.00381523
0.523729 0.523639 0 0.00379004
0.715676 0.194169 0 0.00381095
0.574156 0.470415 3.46945e-18 0.00379742
0.624584 0.403236 0 0.00380696
0.743101 0.0241911 -7.70372e-34 0.00386448
0.412065 0.619475 3.08149e-33 0.00377547
0.715676 0.2049 0 0.00381511
0.151552 0.730005 0 0.00375586
0.67013 0.328484 3.46945e-18 0.00381584
0.350249 0.659208 0 0.00376855
0.467897 0.582034 0 0.00378175
0.715676 0.21602 0 0.00381854
0.219992 0.715441 0 0.00375883
0.075776 0.745097 -3.46945e-18 0.00375256
0.715676 0.227544 0 0.00382133
0.67013 0.344091 0 0.00381641
0.624584 0.421557 0 0.00380764
0.743101 0.128874 -7.70372e-34 0.00375848
0.715676 0.239487 3.70071e-18 0.00382359
0.574156 0.491175 0 0.00379815
0.756814 0.00184055 0 0.000311711
0.523729 0.546332 0 0.00379066
0.756813 0.00558849 0 0.000834601
0.756813 0.00947248 0 0.00327071
0.756814 0.0134975 -3.46945e-18 0.00451428
0.756814 0.0155459 0 0.00449704
0.756814 0.0176687 0 0.00447828
0.756814 0.0219913 0 0.00405373
0.756814 0.0264709 0 0.00372732
0.756814 0.031113 -3.46945e-18 0.00353219
0.756813 0.0359238 -3.46945e-18 0.00344598
0.288433 0.700877 0 0.00376409
0.756814 0.0409092 -3.46945e-18 0.00343355
0.756813 0.0460755 3.46945e-18 0.00345342
0.756813 0.0514296 0 0.00348651
0.715676 0.251863 0 0.00382538
0.756813 0.0569779 0 0.00352251
0.756814 0.0627277 -3.46945e-18 0.00355691
0.756814 0.0686863 -3.46945e-18 0.00358788
0 0.76019 0 0.00375
0.756814 0.0748612 0 0.00361481
0.67013 0.360265 3.46945e-18 0.00381697
0.756814 0.0812603 -3.46945e-18 0.0036389
0.756814 0.0878917 -3.46945e-18 0.00366163
0.756814 0.0947639 -3.46945e-18 0.003683
0.715676 0.264688 0 0.0038268
0.756813 0.101886 0 0.00370289
0.624584 0.440544 0 0.00380833
0.756813 0.109266 3.46945e-18 0.00372118
0.756813 0.116914 3.46945e-18 0.00373791
0.412065 0.645647 0 0.00377589
0.467897 0.606847 0 0.00378225
0.756814 0.120806 0 0.0037464
0.756813 0.12484 0 0.0037531
0.715676 0.27798 0 0.00382792
0.756814 0.133054 -3.46945e-18 0.00376679
0.67013 0.377026 -3.46945e-18 0.00381753
0.756814 0.137234 0 0.00377385
0.574156 0.51269 0 0.00379885
0.756813 0.141566 3.46945e-18 0.00377902
0.685312 0.352034 -7.70372e-34 0.00382244
0.743101 0.2049 -7.70372e-34 0.00382431
0.350249 0.686824 0 0.00376892
0.756814 0.150387 0 0.00378985
0.756814 0.154876 0 0.0037956
0.715676 0.291753 0 0.00382881
0.756814 0.159528 -3.46945e-18 0.00379935
0.523729 0.569849 0 0.00379121
0.72743 0.264688 0 0.00383107
0.756814 0.16418 0 0.00380449
0.151552 0.76019 0 0.00375602
0.756813 0.169001 3.46945e-18 0.00380759
0.624584 0.46022 0 0.00380904
0.219993 0.745097 0 0.00375907
0.67013 0.394396 0 0.00381811
0.756813 0.178818 -3.46945e-18 0.00381467
0.715676 0.306027 0 0.00382953
0.075776 0.775831 0 0.00375264
0.756813 0.188991 0 0.00382067
0.756814 0.199535 0 0.00382571
0.715676 0.320819 0 0.00383013
0.574156 0.534985 0 0.00379949
0.288433 0.730005 0 0.00376438
0.756813 0.21046 0 0.00382987
0.467897 0.632561 0 0.00378271
0.67013 0.412396 -3.46945e-18 0.00381871
0.624584 0.48061 -3.08149e-33 0.00380973
0.756814 0.221782 0 0.00383328
0.412065 0.67277 3.08149e-33 0.00377628
0.715676 0.336148 0 0.00383065
0 0.791472 0 0.00375
0.756813 0.233516 3.46945e-18 0.00383602
0.523729 0.594219 0 0.00379172
0.624584 0.487654 1.54074e-33 0.00380996
0.756814 0.245675 3.46945e-18 0.0038382
0.350249 0.715441 3.46945e-18 0.00376927
0.67013 0.43105 0 0.00381934
0.715676 0.352034 -9.25187e-19 0.00383114
0.797951 9.08189e-19 -3.08149e-33 0.000280117
0.797951 0.00368111 2.31298e-18 0.000553755
0.797951 0.00749587 2.31298e-18 0.00209312
0.797951 0.0114491 2.31298e-18 0.00403989
0.797951 0.0141803 7.70372e-34 0.00450301
0.797951 0.0155459 0 0.00473457
0.797951 0.0169611 7.70372e-34 0.00466227
0.797951 0.0197915 2.31298e-18 0.00451769
0.797951 0.0219913 0 0.00430152
0.797951 0.0241911 3.08149e-33 0.00408534
0.797951 0.0264709 0 0.00391914
0.797951 0.0287506 -3.08149e-33 0.00375294
0.797951 0.0334755 2.31298e-18 0.00355718
0.797951 0.038372 2.31298e-18 0.00347186
0.797951 0.0434463 2.31298e-18 0.003455
0.797951 0.0487048 0 0.00347159
0.756813 0.258275 -3.46945e-18 0.00383991
0.797951 0.0541543 2.31298e-18 0.00350158
0.797951 0.0598016 2.31298e-18 0.00353522
0.797951 0.0656539 2.31298e-18 0.00356784
0.574156 0.55809 0 0.00380007
0.624584 0.501741 0 0.0038104
0.797951 0.0717187 2.31298e-18 0.00359749
0.797951 0.0780037 -3.08149e-33 0.00362421
0.797951 0.0845169 2.31298e-18 0.00364911
0.797951 0.0912666 -3.08149e-33 0.00367276
0.797951 0.0982613 2.31298e-18 0.00369502
0.756813 0.271334 0 0.00384124
0.797951 0.10551 2.31298e-18 0.00371572
0.715676 0.368496 0 0.00383161
0.151552 0.791472 0 0.00375617
0.797951 0.113022 2.31298e-18 0.00373479
0.219992 0.775831 3.46945e-18 0.00375931
0.797951 0.118211 7.70372e-34 0.0037464
0.770526 0.239487 1.54074e-33 0.00384317
0.797951 0.120806 0 0.0037522
0.67013 0.450382 3.46945e-18 0.00382
0.797951 0.128874 3.08149e-33 0.003768
0.467897 0.659208 0 0.00378313
0.756813 0.284866 -3.46945e-18 0.00384226
0.743101 0.320819 -7.70372e-34 0.0038401
0.797951 0.137234 0 0.00378221
0.797951 0.141566 0 0.00378855
0.797951 0.145897 -9.25187e-19 0.00379488
0.523729 0.619475 0 0.00379217
0.075776 0.807681 0 0.00375271
0.797951 0.150387 0 0.00380047
0.797951 0.154876 0 0.00380607
0.715676 0.385557 0 0.00383209
0.412065 0.700877 3.08149e-33 0.00377663
0.288433 0.76019 0 0.00376466
0.756813 0.29889 0 0.00384304
0.797951 0.16418 0 0.00381584
0.624584 0.523639 0 0.00381102
0.797951 0.167394 7.70372e-34 0.00381866
0.797951 0.173822 2.31298e-18 0.0038243
0.574156 0.582034 0 0.00380059
0.67013 0.470415 0 0.00382065
0.797951 0.183814 2.31298e-18 0.00383152
0.756813 0.313423 -3.46945e-18 0.00384366
0.797951 0.194169 -9.25187e-19 0.00383762
0.715676 0.403236 0 0.00383259
0.151552 0.807681 0 0.00375625
0.797951 0.197746 -7.70372e-34 0.00383932
0.350249 0.745097 0 0.00376959
0.797951 0.2049 3.08149e-33 0.00384271
0 0.823889 0 0.00375
0.756813 0.328483 -3.46945e-18 0.00384416
0.797951 0.21046 0 0.0038448
0.797951 0.21602 -3.08149e-33 0.00384689
0.797951 0.223703 7.70372e-34 0.00384914
0.797951 0.227544 9.25187e-19 0.00385027
0.624584 0.546332 0 0.00381159
0.715676 0.421557 0 0.00383311
0.67013 0.491176 -3.46945e-18 0.00382129
0.797951 0.231525 7.70372e-34 0.00385117
0.467897 0.686824 -3.46945e-18 0.0037835
0.523729 0.645647 0 0.00379257
0.756813 0.344091 -3.46945e-18 0.00384459
0.822721 0.120806 7.70372e-34 0.00375692
0.797951 0.239487 -3.08149e-33 0.00385297
0.822721 0.137234 7.70372e-34 0.0037886
0.835106 0.00184056 0 0.000250154
0.835106 0.00558849 0 0.000820578
0.835106 0.00947248 0 0.00344255
0.835106 0.0134975 0 0.00491688
0.835107 0.0176687 0 0.00500425
0.835106 0.0219913 -3.46945e-18 0.00450849