# kMean  POINT_DATA 63140
# x  y  z  kMean
0 0.1 0 0.00375
0 0.1 -0.0179898 0.00375
0 0.1 0.0179898 0.00375
0.0363518 0.1 0.0179898 0.00374741
0.0363518 0.1 -0.0179898 0.00374731
0 0.1 -0.0570102 0.00375
0 0.1 0.0570102 0.00375
0.0363518 0.1 0.0570102 0.00374741
0.0363518 0.1 -0.0570102 0.00374731
0 0.1 -0.075 0.00375
0 0.1 0.075 0.00375
0.075776 0.1 -0.0375 0.00374413
0.075776 0.1 0.0375 0.00374434
0 0.1 -0.0929898 0.00375
0 0.1 0.0929898 0.00375
0.0363518 0.1 -0.0929898 0.00374736
0.0363518 0.1 0.0929898 0.00374764
0 0.1 -0.13201 0.00375
0 0.1 0.13201 0.00375
0.075776 0.1 -0.1125 0.00374423
0.075776 0.1 0.1125 0.00374481
0.0363518 0.1 -0.13201 0.00374736
0.0363518 0.1 0.13201 0.00374764
0 0.1 -0.15 0.00375
0 0.1 0.15 0.00375
0.150379 0.1 -2.22623e-17 0.00373704
0 0.1 -0.16799 0.00375
0 0.1 0.16799 0.00375
0.150379 0.1 -0.075 0.00373727
0.150379 0.1 0.075 0.00373745
0.0363518 0.1 -0.16799 0.00374758
0.0363518 0.1 0.16799 0.00374799
0.075776 0.1 -0.1875 0.00374468
0.075776 0.1 0.1875 0.00374553
0 0.1 -0.20701 0.00375
0 0.1 0.20701 0.00375
0.0363518 0.1 -0.20701 0.00374758
0.0363518 0.1 0.20701 0.00374799
0.150379 0.1 -0.15 0.0037381
0.150379 0.1 0.15 0.00373835
0.219993 0.1 -0.0375 0.00373017
0.219993 0.1 0.0375 0.00373017
0 0.1 -0.225 0.00375
0 0.1 0.225 0.00375
0 0.1 -0.24299 0.00375
0 0.1 0.24299 0.00375
0.0363518 0.1 0.24299 0.00374842
0.0363518 0.1 -0.24299 0.00374788
0.219993 0.1 -0.1125 0.00373117
0.219993 0.1 0.1125 0.00373111
0.150379 0.1 -0.225 0.00373906
0.150379 0.1 0.225 0.00373955
0.075776 0.1 -0.2625 0.00374531
0.075776 0.1 0.2625 0.0037464
0 0.1 -0.28201 0.00375
0 0.1 0.28201 0.00375
0.0363518 0.1 -0.28201 0.00374788
0.0363518 0.1 0.28201 0.00374842
0.287374 0.1 -2.89121e-19 0.00372297
0.219992 0.1 0.1875 0.00373258
0.219992 0.1 -0.1875 0.00373289
0.287374 0.1 -0.075 0.00372378
0.287374 0.1 0.075 0.00372311
0 0.1 -0.3 0.00375
0 0.1 0.3 0.00375
0 0.1 0.31799 0.00375
0 0.1 -0.31799 0.00375
0.0363518 0.1 -0.31799 0.00374817
0.0363518 0.1 0.31799 0.00374886
0.287374 0.1 0.15 0.0037241
0.287374 0.1 -0.15 0.0037253
0.150379 0.1 -0.3 0.00373988
0.150379 0.1 0.3 0.00374085
0.219993 0.1 0.2625 0.00373425
0.219993 0.1 -0.2625 0.00373388
0.075776 0.1 -0.3375 0.0037459
0.075776 0.1 0.3375 0.00374731
0.350249 0.1 -0.0375 0.00371641
0.350249 0.1 0.0375 0.00371574
0 0.1 -0.35701 0.00375
0 0.1 0.35701 0.00375
0.0363518 0.1 -0.35701 0.00374817
0.0363518 0.1 0.35701 0.00374886
0.287374 0.1 -0.225 0.00372679
0.287374 0.1 0.225 0.00372564
0.350249 0.1 -0.1125 0.00371792
0.350249 0.1 0.1125 0.00371606
0 0.1 -0.375 0.00375
0 0.1 0.375 0.00375
0 0.1 -0.39299 0.00375
0 0.1 0.39299 0.00375
0.0363518 0.1 -0.39299 0.00374842
0.0363518 0.1 0.39299 0.00374922
0.350249 0.1 -0.1875 0.00371977
0.350249 0.1 0.1875 0.00371728
0.219992 0.1 -0.3375 0.00373494
0.219992 0.1 0.3375 0.00373599
0.150379 0.1 0.375 0.00374213
0.150379 0.1 -0.375 0.00374067
0.411108 0.1 4.33681e-19 0.00371048
0.287374 0.1 -0.3 0.00372795
0.287374 0.1 0.3 0.00372745
0.411108 0.1 -0.075 0.00371175
0.411108 0.1 0.075 0.00370998
0.075776 0.1 -0.4125 0.00374642
0.075776 0.1 0.4125 0.00374806
0 0.1 0.43201 0.00375
0 0.1 -0.43201 0.00375
0.0363518 0.1 0.43201 0.00374922
0.0363518 0.1 -0.43201 0.00374842
0.411108 0.1 -0.15 0.00371343
0.411108 0.1 0.15 0.00371038
0.350249 0.1 -0.2625 0.00372115
0.350249 0.1 0.2625 0.00371909
0 0.1 -0.45 0.00375
0 0.1 0.45 0.00375
0.219992 0.1 0.4125 0.00373766
0.219992 0.1 -0.4125 0.00373593
0 0.1 -0.46799 0.00375
0 0.1 0.46799 0.00375
0.411108 0.1 -0.225 0.00371499
0.411108 0.1 0.225 0.00371159
0.467897 0.1 -0.0375 0.00370568
0.467897 0.1 0.0375 0.00370448
0.0363518 0.1 0.46799 0.00374952
0.0363518 0.1 -0.46799 0.00374866
0.287374 0.1 -0.375 0.00372901
0.287374 0.1 0.375 0.00372931
0.150379 0.1 0.45 0.00374313
0.150379 0.1 -0.45 0.00374135
0.467897 0.1 0.1125 0.00370407
0.467897 0.1 -0.1125 0.00370735
0.350249 0.1 -0.3375 0.00372236
0.350249 0.1 0.3375 0.0037211
0.075776 0.1 -0.4875 0.0037469
0.075776 0.1 0.4875 0.00374868
0.467897 0.1 0.1875 0.00370457
0.467897 0.1 -0.1875 0.00370902
0 0.1 -0.50701 0.00375
0 0.1 0.50701 0.00375
0.0363518 0.1 -0.50701 0.00374866
0.0363518 0.1 0.50701 0.00374952
0.411108 0.1 0.3 0.00371331
0.411108 0.1 -0.3 0.00371625
0.522865 0.1 1.41031e-17 0.00370175
0 0.1 -0.525 0.00375
0 0.1 0.525 0.00375
0.522865 0.1 -0.075 0.00370322
0.522865 0.1 0.075 0.00370072
0.287374 0.1 0.45 0.00373087
0.287374 0.1 -0.45 0.00372984
0.219992 0.1 0.4875 0.0037386
0.219992 0.1 -0.4875 0.00373662
0.467897 0.1 -0.2625 0.00371038
0.467897 0.1 0.2625 0.00370588
0.350249 0.1 -0.4125 0.00372332
0.350249 0.1 0.4125 0.0037231
0 0.1 -0.54299 0.00375
0 0.1 0.54299 0.00375
0.522865 0.1 0.15 0.00370039
0.522865 0.1 -0.15 0.00370477
0.0363518 0.1 0.54299 0.00374979
0.0363518 0.1 -0.54299 0.00374889
0.150379 0.1 -0.525 0.00374185
0.150379 0.1 0.525 0.00374385
0.411108 0.1 -0.375 0.00371725
0.411108 0.1 0.375 0.00371525
0.075776 0.1 -0.5625 0.00374738
0.075776 0.1 0.5625 0.00374924
0.522865 0.1 -0.225 0.00370611
0.522865 0.1 0.225 0.00370086
0.574156 0.1 0.0375 0.00369777
0.574157 0.1 -0.0375 0.00369923
0.467897 0.1 -0.3375 0.0037115
0.467897 0.1 0.3375 0.00370767
0 0.1 -0.58201 0.00375
0 0.1 0.58201 0.00375
0.0363518 0.1 -0.58201 0.00374889
0.0363518 0.1 0.58201 0.00374979
0.574157 0.1 -0.1125 0.00370077
0.574157 0.1 0.1125 0.00369673
0.287374 0.1 -0.525 0.00373039
0.287374 0.1 0.525 0.00373199
0 0.1 -0.6 0.00375
0 0.1 0.6 0.00375
0.350249 0.1 0.4875 0.00372471
0.350249 0.1 -0.4875 0.00372399
0.522865 0.1 -0.3 0.00370714
0.522865 0.1 0.3 0.00370202
0.219992 0.1 -0.5625 0.00373697
0.219992 0.1 0.5625 0.00373933
0.574156 0.1 -0.1875 0.00370209
0.574156 0.1 0.1875 0.00369638
0.411108 0.1 0.45 0.00371708
0.411108 0.1 -0.45 0.00371794
0 0.1 -0.61799 0.00375
0 0.1 0.61799 0.00375
0.150379 0.1 -0.6 0.00374236
0.150379 0.1 0.6 0.00374448
0.0363518 0.1 -0.61799 0.00374912
0.0363518 0.1 0.61799 0.00375005
0.467897 0.1 -0.4125 0.0037122
0.467897 0.1 0.4125 0.0037096
0.623803 0.1 2.34188e-17 0.00369735
0.623803 0.1 0.075 0.003696
0.623803 0.1 -0.075 0.00369878
0.574156 0.1 0.2625 0.00369683
0.574156 0.1 -0.2625 0.00370311
0.623803 0.1 0.15 0.00369501
0.623803 0.1 -0.15 0.00370001
0.075776 0.1 0.6375 0.00374976
0.075776 0.1 -0.6375 0.00374786
0.522865 0.1 -0.375 0.00370778
0.522865 0.1 0.375 0.0037036
0 0.1 0.65701 0.00375
0 0.1 -0.65701 0.00375
0.0363518 0.1 0.65701 0.00375005
0.0363518 0.1 -0.65701 0.00374912
0.350249 0.1 0.5625 0.00372586
0.350249 0.1 -0.5625 0.00372448
0.623803 0.1 0.225 0.00369463
0.623803 0.1 -0.225 0.0037009
0.287374 0.1 -0.6 0.00373094
0.287374 0.1 0.6 0.00373286
0.574157 0.1 -0.3375 0.00370373
0.574157 0.1 0.3375 0.00369796
0.411108 0.1 0.525 0.00371856
0.411108 0.1 -0.525 0.00371842
0.67013 0.1 0.0375 0.00369544
0.67013 0.1 -0.0375 0.00369691
0.219992 0.1 -0.6375 0.00373768
0.219993 0.1 0.6375 0.00374003
0 0.1 -0.675 0.00375
0 0.1 0.675 0.00375
0.467897 0.1 -0.4875 0.00371264
0.467897 0.1 0.4875 0.00371138
0.67013 0.1 -0.1125 0.00369814
0.67013 0.1 0.1125 0.00369399
0.522865 0.1 0.45 0.00370526
0.522865 0.1 -0.45 0.00370807
0.150379 0.1 0.675 0.00374509
0.150379 0.1 -0.675 0.00374294
0.623803 0.1 0.3 0.00369493
0.623803 0.1 -0.3 0.00370135
0 0.1 -0.69299 0.00375
0 0.1 0.69299 0.00375
0.0363518 0.1 -0.69299 0.00374935
0.0363518 0.1 0.69299 0.00375028
0.67013 0.1 -0.1875 0.00369898
0.67013 0.1 0.1875 0.00369289
0.574156 0.1 0.4125 0.00369943
0.574157 0.1 -0.4125 0.0037039
0.714971 0.1 -2.8382e-17 0.00369696
0.075776 0.1 -0.7125 0.00374833
0.075776 0.1 0.7125 0.00375024
0.714971 0.1 -0.075 0.00369815
0.714971 0.1 0.075 0.00369552
0.67013 0.1 0.2625 0.00369239
0.67013 0.1 -0.2625 0.00369938
0.411108 0.1 -0.6 0.00371887
0.411108 0.1 0.6 0.00371966
0.350249 0.1 0.6375 0.00372675
0.350249 0.1 -0.6375 0.00372512
0.623803 0.1 0.375 0.00369578
0.623803 0.1 -0.375 0.00370133
0.714971 0.1 -0.15 0.0036989
0.714971 0.1 0.15 0.00369405
0.467897 0.1 -0.5625 0.00371297
0.467897 0.1 0.5625 0.00371275
0 0.1 -0.73201 0.00375
0 0.1 0.73201 0.00375
0.0363518 0.1 0.73201 0.00375028
0.0363518 0.1 -0.73201 0.00374935
0.287374 0.1 -0.675 0.0037316
0.287374 0.1 0.675 0.00373363
0.522865 0.1 -0.525 0.00370814
0.522865 0.1 0.525 0.0037067
0.219993 0.1 -0.7125 0.00373836
0.219992 0.1 0.7125 0.00374074
0.714971 0.1 -0.225 0.00369914
0.714971 0.1 0.225 0.00369288
0 0.1 0.75 0.00375
0 0.1 -0.75 0.00375
0.67013 0.1 -0.3375 0.00369917
0.67013 0.1 0.3375 0.00369254
0.574156 0.1 -0.4875 0.00370375
0.574157 0.1 0.4875 0.00370091
0.756813 0.1 0.0375 0.00369699
0.756814 0.1 -0.0375 0.00369826
0.150379 0.1 0.746002 0.00374571
0.150379 0.1 -0.75 0.0037435
0.756813 0.1 -0.1125 0.00369903
0.756813 0.1 0.1125 0.00369537
0 0.1 0.76799 0.00375
0 0.1 -0.76799 0.00375
0.0363518 0.1 0.76799 0.00375049
0.0363518 0.1 -0.76799 0.00374957
0.623803 0.1 -0.45 0.00370093
0.623803 0.1 0.45 0.00369688
0.714971 0.1 -0.3 0.00369878
0.714971 0.1 0.3 0.00369221
0.756814 0.1 -0.1875 0.00369922
0.756814 0.1 0.1875 0.0036937
0.67013 0.1 -0.4125 0.00369854
0.67013 0.1 0.4125 0.00369321
0.411108 0.1 0.675 0.00372051
0.411108 0.1 -0.675 0.00371934
0.467897 0.1 0.6375 0.00371372
0.467897 0.1 -0.6375 0.00371331
0.075776 0.1 0.7875 0.00375066
0.075776 0.1 -0.7875 0.00374878
0.350249 0.1 -0.7125 0.00372575
0.350249 0.1 0.7125 0.00372754
0.522865 0.1 -0.6 0.00370812
0.522865 0.1 0.6 0.00370774
0.797314 0.1 -3.59473e-17 0.00370013
0.287374 0.1 0.746002 0.00373444
0.797314 0.1 -0.075 0.00370091
0.797314 0.1 0.075 0.00369878
0.756814 0.1 -0.2625 0.00369875
0.756814 0.1 0.2625 0.00369231
0.287374 0.1 -0.75 0.00373222
0.574156 0.1 -0.5625 0.00370342
0.574156 0.1 0.5625 0.00370206
0 0.1 0.80701 0.00375
0 0.1 -0.80701 0.00375
0.714971 0.1 -0.375 0.00369788
0.714971 0.1 0.375 0.00369208
0.0363518 0.1 0.80701 0.00375049
0.0363518 0.1 -0.80701 0.00374957
0.797314 0.1 -0.15 0.00370105
0.797314 0.1 0.15 0.00369704
0.623803 0.1 -0.525 0.00370026
0.623803 0.1 0.525 0.0036979
0.219992 0.1 0.7875 0.00374141
0.219992 0.1 -0.7875 0.00373897
0.149792 0.1 0.80701 0.00374607
0 0.1 0.825 0.00375
0 0.1 -0.825 0.00375
0.797314 0.1 -0.225 0.00370047
0.797314 0.1 0.225 0.00369522
0.756813 0.1 -0.3375 0.00369763
0.756813 0.1 0.3375 0.0036914
0.67013 0.1 0.4875 0.00369403
0.67013 0.1 -0.4875 0.00369757
0.835106 0.1 -0.0375 0.00370288
0.835106 0.1 0.0375 0.00370195
0.150379 0.1 -0.825 0.003744
0.835106 0.1 -0.1125 0.00370307
0.835106 0.1 0.1125 0.00370035
0 0.1 -0.84299 0.00375
0 0.1 0.84299 0.00375
0.0363518 0.1 -0.84299 0.00374977
0.0363518 0.1 0.84299 0.00375065
0.714971 0.1 -0.45 0.00369655
0.714971 0.1 0.45 0.00369232
0.411108 0.1 0.746002 0.00372133
0.797314 0.1 -0.3 0.00369919
0.797314 0.1 0.3 0.00369362
0.467897 0.1 -0.7125 0.00371361
0.467897 0.1 0.7125 0.00371448
0.522865 0.1 0.675 0.00370844
0.522865 0.1 -0.675 0.00370809
0.411108 0.1 -0.75 0.00371977
0.835106 0.1 -0.1875 0.00370248
0.835107 0.1 0.1875 0.00369831
0.286844 0.1 0.80701 0.0037349
0.574156 0.1 0.6375 0.00370274
0.574157 0.1 -0.6375 0.00370306
0.350249 0.1 -0.7875 0.00372633
0.350249 0.1 0.7875 0.00372828
0.756813 0.1 -0.4125 0.00369601
0.756814 0.1 0.4125 0.00369098
0.623803 0.1 -0.6 0.00369946
0.623803 0.1 0.6 0.00369857
0.075776 0.1 0.8625 0.00375101
0.075776 0.1 -0.8625 0.0037492
0.871687 0.1 -3.2767e-18 0.00370632
0.287374 0.1 -0.825 0.00373277
0.871687 0.1 -0.075 0.00370658
0.871687 0.1 0.075 0.00370521
0.67013 0.1 -0.5625 0.00369639
0.67013 0.1 0.5625 0.00369468
0.835106 0.1 0.2625 0.00369615
0.835106 0.1 -0.2625 0.00370106
0.797314 0.1 -0.375 0.00369728
0.797314 0.1 0.375 0.0036924
0 0.1 -0.88201 0.00375
0 0.1 0.88201 0.00375
0.0363518 0.1 0.88201 0.00375065
0.0363518 0.1 -0.88201 0.00374977
0.871687 0.1 0.15 0.00370339
0.871687 0.1 -0.15 0.003706
0.714971 0.1 0.525 0.00369263
0.714971 0.1 -0.525 0.00369492
0.219993 0.1 0.8625 0.003742
0.219992 0.1 -0.8625 0.0037395
0 0.1 0.9 0.00375
0 0.1 -0.9 0.00375
0.756813 0.1 0.4875 0.00369092
0.756814 0.1 -0.4875 0.00369396
0.871687 0.1 0.225 0.00370109
0.871687 0.1 -0.225 0.00370454
0.835106 0.1 -0.3375 0.00369897
0.835106 0.1 0.3375 0.00369422
0.41063 0.1 0.80701 0.00372178
0.90582 0.1 -0.0375 0.00371017
0.905821 0.1 0.0375 0.00370971
0.522865 0.1 0.746002 0.00370902
0.150379 0.1 0.9 0.00374659
0.90582 0.1 0.1125 0.00370828
0.905821 0.1 -0.1125 0.00370967
0.522865 0.1 -0.75 0.00370801
0.574156 0.1 0.7125 0.00370312
0.574156 0.1 -0.7125 0.00370268
0.797314 0.1 -0.45 0.00369485
0.797314 0.1 0.45 0.00369159
0.467897 0.1 -0.7875 0.00371382
0.467897 0.1 0.7875 0.00371514
0.150379 0.1 -0.903998 0.0037443
0 0.1 0.91799 0.00375
0 0.1 -0.91799 0.00375
0.0363518 0.1 0.91799 0.00375078
0.0363518 0.1 -0.91799 0.00374994
0.623803 0.1 0.675 0.00369882
0.623803 0.1 -0.675 0.00369859
0.411108 0.1 -0.825 0.0037201
0.871687 0.1 0.3 0.00369866
0.871687 0.1 -0.3 0.00370225
0.67013 0.1 -0.6375 0.00369507
0.67013 0.1 0.6375 0.0036949
0.90582 0.1 -0.1875 0.00370827
0.90582 0.1 0.1875 0.00370606
0.350249 0.1 0.8625 0.00372897
0.350249 0.1 -0.8625 0.0037268
0.835106 0.1 -0.4125 0.00369621
0.835106 0.1 0.4125 0.00369264
0.714971 0.1 -0.6 0.00369311
0.714971 0.1 0.6 0.00369268
0.93886 0.1 -1.15648e-17 0.00371518
0.075776 0.1 0.9375 0.00375128
0.075776 0.1 -0.9375 0.00374955
0.93886 0.1 0.075 0.00371443
0.93886 0.1 -0.075 0.00371487
0.756813 0.1 0.5625 0.00369077
0.756814 0.1 -0.5625 0.00369168
0.905821 0.1 -0.2625 0.00370585
0.905821 0.1 0.2625 0.00370331
0.287374 0.1 0.9 0.00373562
0.287374 0.1 -0.903998 0.00373305
0.871687 0.1 0.375 0.00369638
0.871687 0.1 -0.375 0.00369921
0.93886 0.1 -0.15 0.00371357
0.93886 0.1 0.15 0.00371265
0.797314 0.1 0.525 0.00369096
0.797314 0.1 -0.525 0.00369206
0 0.1 0.95701 0.00375
0 0.1 -0.95701 0.00375
0.0363518 0.1 0.95701 0.00375078
0.0363518 0.1 -0.95701 0.00374994
0.522433 0.1 0.80701 0.00370927
0.219992 0.1 0.9375 0.00374246
0.219992 0.1 -0.9375 0.00373994
0.93886 0.1 0.225 0.00371005
0.93886 0.1 -0.225 0.00371123
0.90582 0.1 0.3375 0.00370045
0.905821 0.1 -0.3375 0.00370268
0.835106 0.1 -0.4875 0.00369297
0.835107 0.1 0.4875 0.00369148
0.969689 0.1 -0.0375 0.00372008
0.969689 0.1 0.0375 0.00372012
0.61613 0.1 0.75 0.00369878
0.574156 0.1 -0.7875 0.00370225
0.574156 0.1 0.7875 0.00370333
0 0.1 0.975 0.00375
0 0.1 -0.975 0.00375
0.623803 0.1 -0.75 0.00369771
0.969689 0.1 -0.1125 0.00371891
0.969689 0.1 0.1125 0.00371893
0.522865 0.1 -0.825 0.00370784
0.67013 0.1 0.7125 0.00369466
0.67013 0.1 -0.7125 0.00369371
0.871687 0.1 -0.45 0.00369552
0.871687 0.1 0.45 0.0036944
0.467897 0.1 0.8625 0.00371571
0.467897 0.1 -0.8625 0.0037139
0.714971 0.1 -0.675 0.00369118
0.714971 0.1 0.675 0.00369231
0.93886 0.1 -0.3 0.00370786
0.93886 0.1 0.3 0.00370695
0.150379 0.1 0.975 0.0037469
0.150379 0.1 -0.975 0.00374479
0.969689 0.1 -0.1875 0.0037168
0.969689 0.1 0.1875 0.00371666
0.411108 0.1 0.9 0.0037225
0.756813 0.1 0.6375 0.00369029
0.756814 0.1 -0.6375 0.00368925
0.990306 0.1 -2.19732e-17 0.00372079
0 0.1 0.99299 0.00375
0 0.1 -0.99299 0.00375
0.411108 0.1 -0.903998 0.00372017
0.990306 0.1 -0.075 0.00372007
0.990306 0.1 0.075 0.0037203
0.0363518 0.1 0.99299 0.00375088
0.0363518 0.1 -0.99299 0.00375008
0.90582 0.1 -0.4125 0.00369857
0.905821 0.1 0.4125 0.00369773
0.797314 0.1 -0.6 0.00368905
0.797314 0.1 0.6 0.00369017
0.350249 0.1 0.9375 0.00372957
0.350249 0.1 -0.9375 0.00372716
0.990306 0.1 0.15 0.0037186
0.990306 0.1 -0.15 0.00371828
0.969689 0.1 -0.2625 0.00371341
0.969689 0.1 0.2625 0.00371351
0.835106 0.1 -0.5625 0.00368943
0.835106 0.1 0.5625 0.00369037
0.93886 0.1 -0.375 0.0037035
0.93886 0.1 0.375 0.00370372
0.075776 0.1 1.0125 0.00375148
0.075776 0.1 -1.0125 0.00374984
0.990306 0.1 -0.225 0.00371533
0.990306 0.1 0.225 0.00371586
0.287374 0.1 0.975 0.00373608
0.287374 0.1 -0.975 0.00373356
0.871687 0.1 -0.525 0.00369142
0.871687 0.1 0.525 0.00369264
1.02149 0.1 -0.0369628 0.00372654
1.02149 0.1 0.0369628 0.00372694
0.969689 0.1 -0.3375 0.00370894
0.969689 0.1 0.3375 0.00370989
1.02149 0.1 -0.110888 0.00372497
1.02149 0.1 0.110888 0.00372602
0.90582 0.1 0.4875 0.00369528
0.90582 0.1 -0.4875 0.00369397
0.623803 0.1 0.819003 0.00369811
0 0.1 1.03201 0.00375
0 0.1 -1.03201 0.00375
0.0363518 0.1 1.03201 0.00375088
0.0363518 0.1 -1.03201 0.00375008
0.67013 0.1 -0.7875 0.00369236
0.67013 0.1 0.7875 0.00369415
0.623803 0.1 -0.825 0.00369677
0.990306 0.1 -0.3 0.00371113
0.990306 0.1 0.3 0.00371236
0.219992 0.1 -1.0125 0.00374028
0.219993 0.1 1.0125 0.00374279
0.574156 0.1 0.8625 0.00370345
0.574157 0.1 -0.8625 0.00370175
0.714971 0.1 -0.75 0.00368921
0.714971 0.1 0.75 0.00369154
1.02149 0.1 0.184814 0.00372384
1.02149 0.1 -0.184814 0.00372232
0.756814 0.1 -0.7125 0.00368669
0.756814 0.1 0.7125 0.00368934
0.522865 0.1 0.9 0.00370964
0.93886 0.1 -0.45 0.0036984
0.93886 0.1 0.45 0.0037006
1.04168 0.1 0 0.00373126
1.04168 0.1 -0.0729162 0.00373013
1.04168 0.1 0.0729162 0.00373113
0.522865 0.1 -0.903998 0.00370749
0.797314 0.1 -0.675 0.0036859
0.797314 0.1 0.675 0.003689
0.467897 0.1 0.9375 0.0037162
0.467897 0.1 -0.9375 0.00371389
0 0.1 1.05 0.00375
0 0.1 -1.05 0.00375
0.835106 0.1 -0.6375 0.00368568
0.835106 0.1 0.6375 0.00368898
1.04168 0.1 -0.145832 0.00372785
1.04168 0.1 0.145832 0.00372968
1.02149 0.1 -0.25874 0.00371829
1.02149 0.1 0.25874 0.00372059
0.969689 0.1 -0.4125 0.00370329
0.969689 0.1 0.4125 0.0037062
0.411108 0.1 0.975 0.00372298
0.411108 0.1 -0.975 0.00372044
0.871687 0.1 -0.6 0.00368701
0.871687 0.1 0.6 0.00369084
1.0579 0.1 -0.0360525 0.0037347
1.0579 0.1 0.0360525 0.00373536
0.990306 0.1 -0.375 0.00370574
0.990306 0.1 0.375 0.00370849
0.150379 0.1 1.05 0.00374711
0.150379 0.1 -1.05 0.00374507
1.0579 0.1 0.108157 0.00373468
1.0579 0.1 -0.108157 0.00373288
1.04168 0.1 -0.218749 0.00372429
1.04168 0.1 0.218749 0.003727
0.90582 0.1 -0.5625 0.00368898
0.90582 0.1 0.5625 0.00369301
0 0.1 -1.06799 0.00375
0 0.1 1.06799 0.00375
0.0363518 0.1 -1.06799 0.00375019
0.0363518 0.1 1.06799 0.00375093
0.350249 0.1 1.0125 0.00373004
0.350249 0.1 -1.0125 0.00372741
1.0579 0.1 -0.180262 0.00372985
1.0579 0.1 0.180262 0.00373267
1.02149 0.1 -0.332665 0.00371288
1.02149 0.1 0.332665 0.00371657
0.93886 0.1 -0.525 0.00369289
0.93886 0.1 0.525 0.00369769
1.08012 0.1 5.49329e-18 0.00374083
1.04168 0.1 -0.291665 0.00371926
1.04168 0.1 0.291665 0.00372331
1.08012 0.1 0.0709941 0.00374096
1.08012 0.1 -0.0709941 0.00373945
0.969689 0.1 -0.4875 0.00369731
0.96969 0.1 0.4875 0.00370261
1.0579 0.1 0.252367 0.00372948
1.0579 0.1 -0.252367 0.00372539
0.990306 0.1 -0.45 0.0036996
0.990306 0.1 0.45 0.00370456
0.287374 0.1 -1.05 0.0037338
0.287374 0.1 1.05 0.00373641
0.714971 0.1 0.821002 0.00369055
1.08012 0.1 -0.141988 0.00373685
1.08012 0.1 0.141988 0.00373972
0.075776 0.1 1.0875 0.0037516
0.075776 0.1 -1.0875 0.00375007
0.714971 0.1 -0.825 0.00368725
0.756813 0.1 -0.7875 0.00368413
0.756814 0.1 0.7875 0.00368798
0.67013 0.1 -0.8625 0.00369094
0.67013 0.1 0.8625 0.00369356
0.797314 0.1 -0.75 0.00368266
0.797314 0.1 0.75 0.00368739
0.623803 0.1 0.9 0.00369833
0.835106 0.1 -0.7125 0.00368183
0.835106 0.1 0.7125 0.00368715
0.623803 0.1 -0.903998 0.00369576
0.574156 0.1 0.9375 0.00370357
0.574156 0.1 -0.9375 0.00370118
1.02149 0.1 -0.406591 0.00370631
1.02149 0.1 0.406591 0.00371218
1.08012 0.1 -0.212982 0.00373288
1.08012 0.1 0.212982 0.00373719
1.10076 0.1 -0.0349809 0.00374577
1.10076 0.1 0.0349809 0.0037467
0.871687 0.1 -0.675 0.00368244
0.871687 0.1 0.675 0.0036887
1.04168 0.1 -0.364581 0.00371293
1.04168 0.1 0.364581 0.00371894
1.10076 0.1 -0.104943 0.0037437
1.10076 0.1 0.104943 0.00374627
0.522865 0.1 0.975 0.00370991
0.522865 0.1 -0.975 0.00370724
1.0579 0.1 -0.324472 0.00371937
1.0579 0.1 0.324472 0.00372535
0 0.1 -1.10701 0.00375
0 0.1 1.10701 0.00375
0.0363518 0.1 1.10701 0.00375093
0.0363518 0.1 -1.10701 0.00375019
0.90582 0.1 0.6375 0.0036906
0.905821 0.1 -0.6375 0.0036837
0.219992 0.1 1.0875 0.00374299
0.219992 0.1 -1.0875 0.00374051
0.93886 0.1 0.6 0.00369474
0.93886 0.1 -0.6 0.00368704
1.10076 0.1 -0.174905 0.00374027
1.10076 0.1 0.174905 0.00374446
0.467897 0.1 1.0125 0.00371657
0.467897 0.1 -1.0125 0.00371379
1.08012 0.1 -0.283976 0.00372734
1.08012 0.1 0.283976 0.00373353
1.11928 0.1 3.93204e-18 0.00375157
0.990306 0.1 -0.525 0.0036931
0.990306 0.1 0.525 0.00370077
0.96969 0.1 -0.5625 0.00369089
0.969689 0.1 0.5625 0.00369929
1.11928 0.1 -0.0690357 0.00374997
1.11928 0.1 0.0690357 0.00375193
0 0.1 1.125 0.00375
0 0.1 -1.125 0.00375
0.411108 0.1 -1.05 0.00372046
0.411108 0.1 1.05 0.00372332
1.10076 0.1 0.244866 0.00374138
1.10076 0.1 -0.244866 0.00373533
1.11928 0.1 -0.138072 0.00374709
1.11928 0.1 0.138072 0.00375091
1.02149 0.1 0.480517 0.00370767
1.02149 0.1 -0.480517 0.00369936
1.0579 0.1 -0.396577 0.00371226
1.0579 0.1 0.396577 0.00372062
1.04168 0.1 -0.437497 0.00370581
1.04168 0.1 0.437497 0.00371423
0.150379 0.1 1.125 0.00374723
0.150379 0.1 -1.125 0.00374526
0.714971 0.1 0.88201 0.00368823
1.08012 0.1 0.354971 0.00372899
1.08012 0.1 -0.354971 0.00372043
1.11928 0.1 -0.207107 0.00374272
1.11928 0.1 0.207107 0.00374854
0.350249 0.1 -1.0875 0.00372756
0.350249 0.1 1.0875 0.00373036
0 0.1 1.14299 0.00375
0 0.1 -1.14299 0.00375
0.0363518 0.1 1.14299 0.00375096
0.0363518 0.1 -1.14299 0.00375028
1.14316 0.1 -0.0339211 0.00375821
1.14316 0.1 0.0339211 0.00375936
0.797314 0.1 0.821002 0.00368557
1.10076 0.1 -0.314829 0.00372865
1.10076 0.1 0.314829 0.00373718
0.797314 0.1 -0.825 0.00367946
0.756814 0.1 -0.8625 0.00368164
0.756814 0.1 0.8625 0.00368641
1.14316 0.1 -0.101763 0.00375585
1.14316 0.1 0.101763 0.00375919
0.835106 0.1 -0.7875 0.00367791
0.835106 0.1 0.7875 0.00368489
0.871687 0.1 -0.75 0.0036778
0.871687 0.1 0.75 0.0036861
0.67013 0.1 0.9375 0.00369295
0.67013 0.1 -0.9375 0.00368951
0.90582 0.1 -0.7125 0.00367831
0.905821 0.1 0.7125 0.0036877
0.714971 0.1 -0.903998 0.00368538
1.11928 0.1 0.276143 0.00374496
1.11928 0.1 -0.276143 0.0037367
1.14316 0.1 0.169605 0.00375762
1.14316 0.1 -0.169605 0.00375202
0.93886 0.1 -0.675 0.00368103
0.93886 0.1 0.675 0.00369149
1.15704 0.1 0 0.00376318
1.0579 0.1 0.468682 0.00371562
1.0579 0.1 -0.468682 0.0037047
0.623803 0.1 0.975 0.00369809
0.623803 0.1 -0.975 0.00369477
0.990306 0.1 0.6 0.00369689
0.990306 0.1 -0.6 0.00368624
1.15704 0.1 -0.0671479 0.00376137
1.15704 0.1 0.0671479 0.00376374
1.04168 0.1 -0.510414 0.00369842
1.04168 0.1 0.510414 0.00370944
0.969689 0.1 -0.6375 0.00368422
0.969689 0.1 0.6375 0.00369553
1.08012 0.1 0.425965 0.00372391
1.08012 0.1 -0.425965 0.00371275
0.287374 0.1 -1.125 0.00373395
0.287374 0.1 1.125 0.0037366
1.02149 0.1 -0.554443 0.00369212
1.02149 0.1 0.554443 0.0037033
0.574156 0.1 1.0125 0.00370368
0.574156 0.1 -1.0125 0.0037005
1.15704 0.1 -0.134296 0.0037582
1.15704 0.1 0.134296 0.00376293
0.075776 0.1 1.1625 0.00375165
0.075776 0.1 -1.1625 0.00375025
1.10076 0.1 -0.384791 0.00372095
1.10076 0.1 0.384791 0.00373217
1.14316 0.1 -0.237448 0.0037466
1.14316 0.1 0.237448 0.00375474
1.11928 0.1 -0.345179 0.0037293
1.11928 0.1 0.345179 0.00374035
0.522865 0.1 1.05 0.00371009
0.522865 0.1 -1.05 0.00370681
1.15704 0.1 -0.201444 0.00375347
1.15704 0.1 0.201444 0.00376075
1.1744 0.1 -0.0331401 0.00376762
1.1744 0.1 0.0331401 0.00376889
1.1744 0.1 -0.0994202 0.00376513
1.1744 0.1 0.0994202 0.00376885
0 0.1 1.18201 0.00375
0 0.1 -1.18201 0.00375
0.0363518 0.1 1.18201 0.00375096
0.0363518 0.1 -1.18201 0.00375028
0.219992 0.1 1.1625 0.00374307
0.219993 0.1 -1.1625 0.00374066
1.14316 0.1 0.30529 0.00375066
1.14316 0.1 -0.30529 0.00373946
0.467897 0.1 1.0875 0.00371681
0.467897 0.1 -1.0875 0.00371359
1.1744 0.1 -0.1657 0.00376111
1.1744 0.1 0.1657 0.00376744
1.15704 0.1 -0.268592 0.00374704
1.15704 0.1 0.268592 0.0037573
1.0579 0.1 0.540787 0.00371057
1.0579 0.1 -0.540787 0.00369698
0.796996 0.1 0.88201 0.00368389
1.08012 0.1 -0.496959 0.00370481
1.08012 0.1 0.496959 0.00371857
1.10076 0.1 0.454752 0.00372668
1.10076 0.1 -0.454752 0.00371271
1.11928 0.1 -0.414214 0.00372112
1.11928 0.1 0.414214 0.003735
1.04168 0.1 -0.58333 0.00369058
1.04168 0.1 0.58333 0.00370457
1.1744 0.1 -0.231981 0.00375548
1.1744 0.1 0.231981 0.00376469
0.871687 0.1 0.821002 0.00368324
0.411108 0.1 1.125 0.00372352
0.411108 0.1 -1.125 0.00372039
1.19808 0.1 1.73472e-17 0.00377719
0.990306 0.1 0.675 0.00369274
0.990306 0.1 -0.675 0.00367919
1.02149 0.1 0.628368 0.00369863
1.02149 0.1 -0.628368 0.00368441
1.19808 0.1 -0.0650961 0.00377513
1.19808 0.1 0.0650961 0.00377795
0 0.1 1.2 0.00375
0 0.1 -1.2 0.00375
0.871687 0.1 -0.825 0.00367326
0.905821 0.1 -0.7875 0.00367298
0.90582 0.1 0.7875 0.00368433
0.835106 0.1 -0.8625 0.0036741
0.835106 0.1 0.8625 0.00368228
0.93886 0.1 -0.75 0.003675
0.93886 0.1 0.75 0.00368785
1.14316 0.1 -0.373132 0.00373133
1.14316 0.1 0.373132 0.00374558
0.969689 0.1 0.7125 0.00369161
0.969689 0.1 -0.7125 0.00367754
1.15704 0.1 -0.33574 0.00373924
1.15704 0.1 0.33574 0.0037527
0.756813 0.1 0.9375 0.00368489
0.756814 0.1 -0.9375 0.00367917
1.19808 0.1 0.130192 0.00377738
1.19808 0.1 -0.130192 0.00377166
0.797314 0.1 -0.903998 0.00367658
0.714971 0.1 0.975 0.00368839
0.714971 0.1 -0.975 0.0036834
0.150379 0.1 1.2 0.00374725
0.150379 0.1 -1.2 0.00374539
1.20938 0.1 -0.0322656 0.00377979
1.20938 0.1 0.0322656 0.00378125
1.1744 0.1 -0.298261 0.00374805
1.1744 0.1 0.298261 0.00376071
1.20938 0.1 -0.0967968 0.00377705
1.20938 0.1 0.0967968 0.00378141
1.19808 0.1 -0.195288 0.00376659
1.19808 0.1 0.195288 0.00377543
0.350249 0.1 1.1625 0.0037305
0.350249 0.1 -1.1625 0.00372762
0.67013 0.1 1.0125 0.00369238
0.67013 0.1 -1.0125 0.00368816
0 0.1 1.21799 0.00375
0 0.1 -1.21799 0.00375
0.0363518 0.1 -1.21799 0.00375033
0.0363518 0.1 1.21799 0.00375096
1.11928 0.1 -0.48325 0.00371269
1.11928 0.1 0.48325 0.0037292
1.10076 0.1 -0.524714 0.0037045
1.10076 0.1 0.524714 0.00372094
1.20938 0.1 0.161328 0.0037802
1.20938 0.1 -0.161328 0.00377274
1.08012 0.1 0.567953 0.00371308
1.08012 0.1 -0.567953 0.00369635
0.623803 0.1 1.05 0.00369784
0.623803 0.1 -1.05 0.00369373
1.0579 0.1 -0.612892 0.00368854
1.0579 0.1 0.612892 0.00370533
1.15704 0.1 -0.402888 0.00373065
1.15704 0.1 0.402888 0.00374719
1.14316 0.1 0.440974 0.0037398
1.14316 0.1 -0.440974 0.00372261
1.19808 0.1 -0.260384 0.00375982
1.19808 0.1 0.260384 0.00377217
1.2267 0.1 3.57064e-18 0.00378783
1.2267 0.1 -0.0636649 0.00378555
1.2267 0.1 0.0636649 0.00378879
1.1744 0.1 -0.364541 0.0037397
1.1744 0.1 0.364541 0.00375563
0.574156 0.1 1.0875 0.0037037
0.574156 0.1 -1.0875 0.00369977
1.20938 0.1 0.225859 0.00377763
1.20938 0.1 -0.225859 0.00376679
1.04168 0.1 -0.656246 0.00368236
1.04168 0.1 0.656246 0.00369945
1.2267 0.1 -0.12733 0.00378182
1.2267 0.1 0.12733 0.00378839
0.287374 0.1 1.2 0.00373664
0.287374 0.1 -1.2 0.00373401
1.02149 0.1 -0.702294 0.00367657
1.02149 0.1 0.702294 0.00369377
0.075776 0.1 -1.2375 0.00375036
0.075776 0.1 1.2375 0.00375165
0.871399 0.1 0.88201 0.00368064
0.522865 0.1 1.125 0.00371015
0.522865 0.1 -1.125 0.00370629
1.2267 0.1 -0.190994 0.00377649
1.2267 0.1 0.190994 0.00378662
1.19808 0.1 -0.32548 0.00375171
1.19808 0.1 0.32548 0.00376769
0.990306 0.1 -0.75 0.00367213
0.990306 0.1 0.75 0.00368834
1.24274 0.1 -0.0314313 0.00379285
1.24274 0.1 0.0314313 0.00379457
1.20938 0.1 -0.29039 0.00375907
1.20938 0.1 0.29039 0.00377379
1.24274 0.1 -0.0942942 0.00378976
1.24274 0.1 0.0942942 0.00379495
0.93886 0.1 0.821002 0.00368394
1.11928 0.1 -0.552285 0.00370359
1.11928 0.1 0.552285 0.00372314
1.15704 0.1 -0.470036 0.0037218
1.15704 0.1 0.470036 0.00374105
0.969689 0.1 -0.7875 0.00367087
0.96969 0.1 0.7875 0.00368728
0.93886 0.1 -0.825 0.0036691
0.90582 0.1 0.8625 0.00368049
0.905821 0.1 -0.8625 0.00366792
1.1744 0.1 -0.430821 0.00373069
1.1744 0.1 0.430821 0.00374973
1.10076 0.1 -0.594676 0.00369511
1.10076 0.1 0.594676 0.00371504
1.14316 0.1 -0.508816 0.00371384
1.14316 0.1 0.508816 0.00373355
1.24274 0.1 -0.157157 0.00378512
1.24274 0.1 0.157157 0.00379397
1.2267 0.1 -0.254659 0.00376948
1.2267 0.1 0.254659 0.0037835
0.467897 0.1 1.1625 0.00371691
0.467897 0.1 -1.1625 0.00371331
1.08012 0.1 0.638947 0.00370734
1.08012 0.1 -0.638947 0.00368728
1.25511 0.1 -5.78241e-19 0.0037997
0.835106 0.1 -0.9375 0.00367051
0.835106 0.1 0.9375 0.00367959
0.871687 0.1 -0.903998 0.00366927
1.25511 0.1 0.0622446 0.00380094
1.25511 0.1 -0.0622446 0.00379706
0.219992 0.1 1.2375 0.00374304
0.219992 0.1 -1.2375 0.00374072
0 0.1 -1.25701 0.00375
0 0.1 1.25701 0.00375
0.0363518 0.1 -1.25701 0.00375033
0.0363518 0.1 1.25701 0.00375096
0.797314 0.1 0.975 0.00368125
0.797314 0.1 -0.975 0.00367343
1.19808 0.1 -0.390576 0.00374282
1.19808 0.1 0.390576 0.00376216
1.0579 0.1 -0.684997 0.00367988
1.0579 0.1 0.684997 0.00369982
1.20938 0.1 -0.354921 0.00375049
1.20938 0.1 0.354921 0.00376875
1.25511 0.1 0.124489 0.00380079
1.25511 0.1 -0.124489 0.00379295
1.24274 0.1 -0.220019 0.00377883
1.24274 0.1 0.220019 0.0037916
0.756813 0.1 1.0125 0.00368342
0.756814 0.1 -1.0125 0.00367692
1.2267 0.1 -0.318324 0.0037612
1.2267 0.1 0.318324 0.00377911
0.411108 0.1 1.2 0.00372354
0.411108 0.1 -1.2 0.00372023
1.25511 0.1 -0.186734 0.00378725
1.25511 0.1 0.186734 0.00379924
0.714971 0.1 1.05 0.00368741
0.714971 0.1 -1.05 0.00368162
1.04168 0.1 -0.729162 0.00367404
1.04168 0.1 0.729162 0.00369418
1.24274 0.1 0.282882 0.00378789
1.24274 0.1 -0.282882 0.00377088
0 0.1 1.275 0.00375
0 0.1 -1.275 0.00375
1.1744 0.1 0.497102 0.00374323
1.1744 0.1 -0.497102 0.00372176
1.15704 0.1 -0.537184 0.00371213
1.15704 0.1 0.537184 0.00373449
1.2756 0.1 -0.03061 0.00380799
1.2756 0.1 0.03061 0.00381016
0.67013 0.1 1.0875 0.00369186
0.67013 0.1 -1.0875 0.00368681
1.2756 0.1 -0.09183 0.00380435
1.2756 0.1 0.09183 0.00381089
1.25511 0.1 -0.248978 0.00377992
1.25511 0.1 0.248978 0.00379628
1.20938 0.1 0.419453 0.00376275
1.20938 0.1 -0.419453 0.0037412
1.11928 0.1 -0.621322 0.00369364
1.11928 0.1 0.621322 0.00371679
1.14316 0.1 -0.576659 0.00370361
1.14316 0.1 0.576659 0.00372704
1.19808 0.1 -0.455673 0.00373359
1.19808 0.1 0.455673 0.00375581
1.02149 0.1 0.776219 0.00368872
1.02149 0.1 -0.776219 0.00366877
0.150379 0.1 1.275 0.0037472
0.150379 0.1 -1.275 0.00374545
1.2756 0.1 -0.15305 0.00379922
1.2756 0.1 0.15305 0.00381023
1.2267 0.1 -0.381989 0.00375212
1.2267 0.1 0.381989 0.00377357
1.10076 0.1 -0.664638 0.00368544
1.10076 0.1 0.664638 0.00370877