# kMean  POINT_DATA 63840
# x  y  z  kMean
0 0.5 3.39583e-17 0.00375
0 0.5 -0.00617931 0.00375
0 0.5 0.00617931 0.00375
0.0124865 0.5 -0.00617931 0.00375032
0.0124865 0.5 0.00617931 0.00375034
0 0.5 -0.0688207 0.00375
0 0.5 0.0688207 0.00375
0.0124865 0.5 -0.0688207 0.00375032
0.0124865 0.5 0.0688207 0.00375034
0 0.5 -0.075 0.00375
0 0.5 0.075 0.00375
0 0.5 -0.0811793 0.00375
0 0.5 0.0811793 0.00375
0.0124865 0.5 -0.0811793 0.00375031
0.0124865 0.5 0.0811793 0.00375037
0.075776 0.5 -0.0375 0.00375194
0.075776 0.5 0.0375 0.00375207
0.075776 0.5 -0.1125 0.00375189
0.075776 0.5 0.1125 0.00375225
0 0.5 -0.143821 0.00375
0 0.5 0.143821 0.00375
0.0124865 0.5 -0.143821 0.00375031
0.0124865 0.5 0.143821 0.00375037
0 0.5 -0.15 0.00375
0 0.5 0.15 0.00375
0.151149 0.5 -0.00137318 0.00375432
0 0.5 -0.156179 0.00375
0 0.5 0.156179 0.00375
0.0124865 0.5 -0.156179 0.00375031
0.0124865 0.5 0.156179 0.00375041
0.151149 0.5 0.075 0.00375456
0.151149 0.5 -0.075 0.00375421
0.075776 0.5 -0.1875 0.00375188
0.075776 0.5 0.1875 0.00375247
0.151149 0.5 0.15 0.00375489
0.151149 0.5 -0.15 0.00375417
0 0.5 -0.218821 0.00375
0 0.5 0.218821 0.00375
0.0124865 0.5 -0.218821 0.00375031
0.0124865 0.5 0.218821 0.00375041
0.219992 0.5 0.0375 0.00375662
0.219993 0.5 -0.0375 0.0037564
0 0.5 -0.225 0.00375
0 0.5 0.225 0.00375
0 0.5 -0.231179 0.00375
0 0.5 0.231179 0.00375
0.0124865 0.5 -0.231179 0.00375031
0.0124865 0.5 0.231179 0.00375045
0.219992 0.5 0.1125 0.00375698
0.219993 0.5 -0.1125 0.00375631
0.151149 0.5 -0.225 0.00375421
0.151149 0.5 0.225 0.00375531
0.075776 0.5 -0.2625 0.0037519
0.075776 0.5 0.2625 0.00375273
0.288069 0.5 -0.00137318 0.00376112
0.219992 0.5 0.1875 0.00375752
0.219993 0.5 -0.1875 0.00375632
0 0.5 0.293821 0.00375
0 0.5 -0.293821 0.00375
0.0124865 0.5 -0.293821 0.00375031
0.0124865 0.5 0.293821 0.00375045
0.288069 0.5 -0.075 0.003761
0.288069 0.5 0.075 0.00376142
0 0.5 -0.3 0.00375
0 0.5 0.3 0.00375
0 0.5 0.306179 0.00375
0 0.5 -0.306179 0.00375
0.0124865 0.5 -0.306179 0.00375033
0.0124865 0.5 0.306179 0.00375049
0.288069 0.5 -0.15 0.00376097
0.288069 0.5 0.15 0.00376184
0.151149 0.5 -0.3 0.00375436
0.151149 0.5 0.3 0.0037558
0.219992 0.5 -0.2625 0.00375645
0.219992 0.5 0.2625 0.00375818
0.075776 0.5 0.3375 0.00375299
0.075776 0.5 -0.3375 0.003752
0.350249 0.5 -0.0375 0.00376539
0.350249 0.5 0.0375 0.00376558
0.288069 0.5 -0.225 0.00376104
0.288069 0.5 0.225 0.00376243
0.350249 0.5 0.1125 0.00376591
0.350249 0.5 -0.1125 0.00376532
0 0.5 0.368821 0.00375
0 0.5 -0.368821 0.00375
0.0124865 0.5 -0.368821 0.00375033
0.0124865 0.5 0.368821 0.00375049
0 0.5 -0.375 0.00375
0 0.5 0.375 0.00375
0 0.5 -0.381179 0.00375
0 0.5 0.381179 0.00375
0.0124865 0.5 -0.381179 0.00375035
0.0124865 0.5 0.381179 0.00375054
0.350249 0.5 -0.1875 0.00376533
0.350249 0.5 0.1875 0.00376638
0.219992 0.5 -0.3375 0.00375678
0.219992 0.5 0.3375 0.0037589
0.151149 0.5 -0.375 0.00375461
0.151149 0.5 0.375 0.00375631
0.411736 0.5 -0.00137318 0.0037727
0.288069 0.5 -0.3 0.0037613
0.288069 0.5 0.3 0.00376314
0.411736 0.5 -0.075 0.00377262
0.411736 0.5 0.075 0.00377295
0.075776 0.5 -0.4125 0.00375214
0.075776 0.5 0.4125 0.00375326
0.350249 0.5 -0.2625 0.00376549
0.350249 0.5 0.2625 0.00376705
0.411736 0.5 -0.15 0.00377257
0.411736 0.5 0.15 0.00377327
0 0.5 -0.443821 0.00375
0 0.5 0.443821 0.00375
0.0124865 0.5 -0.443821 0.00375035
0.0124865 0.5 0.443821 0.00375054
0 0.5 -0.45 0.00375
0 0.5 0.45 0.00375
0 0.5 -0.456179 0.00375
0 0.5 0.456179 0.00375
0.0124865 0.5 -0.456179 0.00375038
0.0124865 0.5 0.456179 0.00375058
0.219992 0.5 -0.4125 0.00375719
0.219993 0.5 0.4125 0.00375966
0.411736 0.5 -0.225 0.00377262
0.411736 0.5 0.225 0.00377373
0.467897 0.5 0.0375 0.00377963
0.467897 0.5 -0.0375 0.0037795
0.288069 0.5 -0.375 0.00376169
0.288069 0.5 0.375 0.00376394
0.151149 0.5 -0.45 0.00375491
0.151149 0.5 0.45 0.00375682
0.467897 0.5 -0.1125 0.0037794
0.467897 0.5 0.1125 0.00377983
0.350249 0.5 0.3375 0.00376786
0.350249 0.5 -0.3375 0.00376588
0.075776 0.5 -0.4875 0.0037523
0.075776 0.5 0.4875 0.0037535
0.467897 0.5 -0.1875 0.00377936
0.467897 0.5 0.1875 0.00378012
0.411736 0.5 -0.3 0.0037728
0.411736 0.5 0.3 0.00377434
0 0.5 -0.518821 0.00375
0 0.5 0.518821 0.00375
0.0124865 0.5 0.518821 0.00375058
0.0124865 0.5 -0.518821 0.00375038
0.523432 0.5 -0.00137318 0.00378921
0 0.5 -0.525 0.00375
0 0.5 0.525 0.00375
0.523432 0.5 -0.075 0.00378913
0.523432 0.5 0.075 0.00378941
0 0.5 -0.531179 0.00375
0 0.5 0.531179 0.00375
0.0124865 0.5 -0.531179 0.00375041
0.0124865 0.5 0.531179 0.00375061
0.288069 0.5 -0.45 0.00376212
0.288069 0.5 0.45 0.00376475
0.219992 0.5 -0.4875 0.00375764
0.219993 0.5 0.4875 0.00376041
0.467897 0.5 -0.2625 0.00377943
0.467897 0.5 0.2625 0.00378053
0.350249 0.5 -0.4125 0.0037663
0.350249 0.5 0.4125 0.00376873
0.523432 0.5 -0.15 0.00378898
0.523432 0.5 0.15 0.00378955
0.151149 0.5 -0.525 0.00375522
0.151149 0.5 0.525 0.00375731
0.411736 0.5 -0.375 0.00377307
0.411736 0.5 0.375 0.00377506
0.075776 0.5 -0.5625 0.00375247
0.075776 0.5 0.5625 0.00375373
0.523432 0.5 -0.225 0.00378887
0.523432 0.5 0.225 0.00378974
0.574156 0.5 -0.0375 0.00379837
0.574156 0.5 0.0375 0.00379851
0.467897 0.5 0.3375 0.00378109
0.467897 0.5 -0.3375 0.00377956
0.574156 0.5 -0.1125 0.00379817
0.574156 0.5 0.1125 0.00379857
0 0.5 -0.593821 0.00375
0 0.5 0.593821 0.00375
0.0124865 0.5 -0.593821 0.00375041
0.0124865 0.5 0.593821 0.00375061
0.288069 0.5 -0.525 0.00376255
0.288069 0.5 0.525 0.00376555
0 0.5 -0.6 0.00375
0 0.5 0.6 0.00375
0.350249 0.5 -0.4875 0.00376674
0.350249 0.5 0.4875 0.00376962
0.523432 0.5 -0.3 0.00378876
0.523432 0.5 0.3 0.00379002
0.219992 0.5 -0.5625 0.00375811
0.219992 0.5 0.5625 0.00376111
0.574156 0.5 -0.1875 0.00379795
0.574156 0.5 0.1875 0.00379861
0 0.5 -0.606179 0.00375
0 0.5 0.606179 0.00375
0.0124865 0.5 -0.606179 0.00375043
0.0124865 0.5 0.606179 0.00375065
0.411736 0.5 -0.45 0.00377333
0.411736 0.5 0.45 0.00377583
0.151149 0.5 -0.6 0.00375554
0.151149 0.5 0.6 0.00375776
0.62168 0.5 2.64545e-17 0.00380959
0.467897 0.5 0.4125 0.00378174
0.467897 0.5 -0.4125 0.0037797
0.624316 0.5 0.0729402 0.00381041
0.624316 0.5 -0.075 0.00381005
0.574156 0.5 -0.2625 0.0037977
0.574157 0.5 0.2625 0.00379866
0.075776 0.5 -0.6375 0.00375264
0.075776 0.5 0.6375 0.00375392
0.624316 0.5 -0.15 0.00380968
0.624316 0.5 0.15 0.00381037
0.523432 0.5 -0.375 0.00378862
0.523432 0.5 0.375 0.0037904
0.350249 0.5 -0.5625 0.00376714
0.350249 0.5 0.5625 0.00377047
0.624316 0.5 -0.225 0.0038092
0.624316 0.5 0.225 0.00381024
0.288069 0.5 0.6 0.0037663
0.288069 0.5 -0.6 0.00376296
0.574156 0.5 -0.3375 0.00379732
0.574156 0.5 0.3375 0.00379879
0.411736 0.5 -0.525 0.00377354
0.411736 0.5 0.525 0.0037766
0 0.5 -0.668821 0.00375
0 0.5 0.668821 0.00375
0.0124865 0.5 -0.668821 0.00375043
0.0124865 0.5 0.668821 0.00375065
0.67013 0.5 0.0375 0.00382166
0.67013 0.5 -0.0375 0.00382143
0.219993 0.5 -0.6375 0.00375855
0.219993 0.5 0.6375 0.00376175
0 0.5 -0.675 0.00375
0 0.5 0.675 0.00375
0.467897 0.5 0.4875 0.00378242
0.467897 0.5 -0.4875 0.00377977
0.67013 0.5 -0.1125 0.003821
0.67013 0.5 0.1125 0.00382165
0 0.5 -0.681179 0.00375
0 0.5 0.681179 0.00375
0.0124865 0.5 -0.681179 0.00375046
0.0124865 0.5 0.681179 0.00375067
0.523432 0.5 -0.45 0.0037884
0.523432 0.5 0.45 0.00379082
0.151149 0.5 -0.675 0.00375583
0.151149 0.5 0.675 0.00375814
0.624316 0.5 -0.3 0.00380855
0.624316 0.5 0.3 0.00381009
0.67013 0.5 0.1875 0.00382143
0.67013 0.5 -0.1875 0.0038204
0.574156 0.5 -0.4125 0.00379688
0.574157 0.5 0.4125 0.00379897
0.708171 0.5 1.88651e-17 0.00383303
0.075776 0.5 -0.7125 0.00375279
0.075776 0.5 0.7125 0.00375408
0.715434 0.5 0.0736268 0.00383511
0.715434 0.5 -0.075 0.00383475
0.67013 0.5 0.2625 0.00382107
0.67013 0.5 -0.2625 0.00381956
0.350249 0.5 -0.6375 0.00376748
0.350249 0.5 0.6375 0.00377126
0.411736 0.5 -0.6 0.00377368
0.411736 0.5 0.6 0.00377732
0.624316 0.5 -0.375 0.00380774
0.624316 0.5 0.375 0.00380995
0.715434 0.5 -0.15 0.00383398
0.715434 0.5 0.15 0.00383523
0.467897 0.5 -0.5625 0.00377974
0.467897 0.5 0.5625 0.00378309
0.288069 0.5 -0.675 0.00376332
0.288069 0.5 0.675 0.00376697
0.523432 0.5 -0.525 0.00378805
0.523432 0.5 0.525 0.00379125
0 0.5 -0.743821 0.00375
0 0.5 0.743821 0.00375
0.0124865 0.5 -0.743821 0.00375046
0.0124865 0.5 0.743821 0.00375067
0.219992 0.5 0.7125 0.00376229
0.219992 0.5 -0.7125 0.00375895
0.715434 0.5 -0.225 0.00383291
0.715434 0.5 0.225 0.00383478
0 0.5 -0.75 0.00375
0 0.5 0.75 0.00375
0.67013 0.5 0.3375 0.00382064
0.67013 0.5 -0.3375 0.00381847
0.574156 0.5 -0.4875 0.00379628
0.574156 0.5 0.4875 0.00379918
0 0.5 -0.756179 0.00375
0 0.5 0.756179 0.00375
0.0124865 0.5 -0.756179 0.00375048
0.0124865 0.5 0.756179 0.00375069
0.756813 0.5 -0.0375 0.00384804
0.756813 0.5 0.0375 0.00384848
0.151149 0.5 -0.75 0.00375609
0.151149 0.5 0.75 0.00375846
0.756813 0.5 -0.1125 0.00384723
0.756813 0.5 0.1125 0.00384848
0.624316 0.5 -0.45 0.00380676
0.624316 0.5 0.45 0.00380982
0.715434 0.5 -0.3 0.00383152
0.715434 0.5 0.3 0.00383413
0.756813 0.5 0.1875 0.00384805
0.756813 0.5 -0.1875 0.00384603
0.67013 0.5 -0.4125 0.0038172
0.67013 0.5 0.4125 0.00382024
0.411736 0.5 -0.675 0.00377372
0.411736 0.5 0.675 0.00377796
0.467897 0.5 0.6375 0.00378368
0.467897 0.5 -0.6375 0.0037796
0.075776 0.5 -0.7875 0.00375292
0.075776 0.5 0.7875 0.00375419
0.350249 0.5 -0.7125 0.00376773
0.350249 0.5 0.7125 0.00377195
0.523432 0.5 -0.6 0.00378758
0.523432 0.5 0.6 0.00379163
0.797732 0.5 2.68882e-17 0.00386333
0.756813 0.5 -0.2625 0.00384441
0.756814 0.5 0.2625 0.00384728
0.797732 0.5 0.0736268 0.00386354
0.797732 0.5 -0.075 0.00386249
0.288069 0.5 -0.75 0.0037636
0.288069 0.5 0.75 0.00376753
0.574156 0.5 -0.5625 0.00379551
0.574157 0.5 0.5625 0.00379937
0.715434 0.5 -0.375 0.00382982
0.715434 0.5 0.375 0.00383336
0.797732 0.5 -0.15 0.00386115
0.797732 0.5 0.15 0.00386343
0.624316 0.5 -0.525 0.00380557
0.624316 0.5 0.525 0.00380966
0.219992 0.5 -0.7875 0.00375928
0.219992 0.5 0.7875 0.00376273
0 0.5 -0.818821 0.00375
0 0.5 0.818821 0.00375
0.0124865 0.5 0.818821 0.00375069
0.0124865 0.5 -0.818821 0.00375048
0 0.5 -0.825 0.00375
0 0.5 0.825 0.00375
0.756813 0.5 0.3375 0.00384626
0.756814 0.5 -0.3375 0.00384245
0.67013 0.5 -0.4875 0.00381565
0.67013 0.5 0.4875 0.00381978
0.797732 0.5 -0.225 0.00385931
0.797732 0.5 0.225 0.0038627
0 0.5 -0.831179 0.00375
0 0.5 0.831179 0.00375
0.0124865 0.5 -0.831179 0.0037505
0.0124865 0.5 0.831179 0.0037507
0.835106 0.5 0.0375 0.00387813
0.835106 0.5 -0.0375 0.00387738
0.151149 0.5 -0.825 0.0037563
0.151149 0.5 0.825 0.0037587
0.835106 0.5 0.1125 0.00387822
0.835106 0.5 -0.1125 0.00387603
0.715434 0.5 -0.45 0.00382782
0.715434 0.5 0.45 0.00383253
0.797732 0.5 -0.3 0.00385699
0.797732 0.5 0.3 0.00386155
0.467897 0.5 0.7125 0.00378419
0.467897 0.5 -0.7125 0.00377935
0.523432 0.5 -0.675 0.00378696
0.523432 0.5 0.675 0.00379194
0.411736 0.5 -0.75 0.00377366
0.411736 0.5 0.75 0.00377849
0.835106 0.5 -0.1875 0.00387407
0.835106 0.5 0.1875 0.00387766
0.574156 0.5 -0.6375 0.00379457
0.574157 0.5 0.6375 0.00379948
0.350249 0.5 -0.7875 0.0037679
0.350249 0.5 0.7875 0.00377251
0.756813 0.5 -0.4125 0.00384005
0.756814 0.5 0.4125 0.00384508
0.075776 0.5 -0.8625 0.00375302
0.075776 0.5 0.8625 0.00375426
0.624316 0.5 0.6 0.00380945
0.624316 0.5 -0.6 0.00380418
0.872064 0.5 5.91974e-17 0.0038942
0.870122 0.5 0.075 0.00389379
0.288069 0.5 -0.825 0.0037638
0.288069 0.5 0.825 0.00376797
0.67013 0.5 -0.5625 0.00381385
0.67013 0.5 0.5625 0.00381925
0.872064 0.5 -0.075 0.00389284
0.835106 0.5 -0.2625 0.00387152
0.835106 0.5 0.2625 0.0038765
0.797732 0.5 -0.375 0.00385419
0.797732 0.5 0.375 0.00386008
0.872064 0.5 0.14794 0.00389457
0.872064 0.5 -0.15 0.00389078
0.715434 0.5 -0.525 0.00382552
0.715434 0.5 0.525 0.00383162
0.219992 0.5 0.8625 0.00376305
0.219993 0.5 -0.8625 0.00375954
0 0.5 -0.893821 0.00375
0 0.5 0.893821 0.00375
0.0124865 0.5 -0.893821 0.0037505
0.0124865 0.5 0.893821 0.0037507
0 0.5 -0.9 0.00375
0 0.5 0.9 0.00375
0.756813 0.5 -0.4875 0.00383731
0.756813 0.5 0.4875 0.00384384
0.872064 0.5 -0.225 0.00388801
0.872064 0.5 0.225 0.00389359
0.835106 0.5 -0.3375 0.00386842
0.835106 0.5 0.3375 0.00387488
0 0.5 0.906179 0.00375
0 0.5 -0.906179 0.00375
0.0124865 0.5 -0.906179 0.00375051
0.0124865 0.5 0.906179 0.00375071
0.90582 0.5 -0.0375 0.0039094
0.90582 0.5 0.0375 0.00391062
0.151149 0.5 -0.9 0.00375646
0.151149 0.5 0.9 0.00375887
0.90582 0.5 -0.1125 0.00390732
0.905821 0.5 0.1125 0.0039109
0.523432 0.5 -0.75 0.00378621
0.523432 0.5 0.75 0.00379214
0.574156 0.5 -0.7125 0.00379349
0.574156 0.5 0.7125 0.00379951
0.797732 0.5 -0.45 0.00385093
0.797732 0.5 0.45 0.00385843
0.467897 0.5 0.7875 0.00378457
0.467897 0.5 -0.7875 0.00377897
0.624316 0.5 -0.675 0.00380261
0.624316 0.5 0.675 0.00380914
0.411736 0.5 -0.825 0.00377349
0.411736 0.5 0.825 0.00377889
0.872064 0.5 0.3 0.00389196
0.872064 0.5 -0.3 0.00388455
0.67013 0.5 -0.6375 0.00381185
0.67013 0.5 0.6375 0.00381864
0.90582 0.5 0.1875 0.00391023
0.905821 0.5 -0.1875 0.00390448
0.350249 0.5 -0.8625 0.00376795
0.350249 0.5 0.8625 0.00377293
0.835106 0.5 -0.4125 0.00386472
0.835106 0.5 0.4125 0.00387287
0.715434 0.5 -0.6 0.00382297
0.715434 0.5 0.6 0.00383059
0.939201 0.5 2.75387e-17 0.00392655
0.075776 0.5 0.9375 0.0037543
0.075776 0.5 -0.9375 0.0037531
0.939111 0.5 0.075 0.00392757
0.939201 0.5 -0.075 0.00392459
0.756813 0.5 0.5625 0.00384245
0.756814 0.5 -0.5625 0.00383426
0.90582 0.5 0.2625 0.0039087
0.905821 0.5 -0.2625 0.00390079
0.288069 0.5 -0.9 0.00376391
0.288069 0.5 0.9 0.00376827
0.872064 0.5 -0.375 0.00388048
0.872064 0.5 0.375 0.00388978
0.939201 0.5 0.148627 0.00392739
0.939201 0.5 -0.15 0.00392175
0.797732 0.5 -0.525 0.00384731
0.797732 0.5 0.525 0.00385664
0.219992 0.5 0.9375 0.00376326
0.219992 0.5 -0.9375 0.00375972
0.939201 0.5 -0.225 0.00391797
0.939201 0.5 0.225 0.00392641
0.905821 0.5 -0.3375 0.00389637
0.90582 0.5 0.3375 0.00390648
0.835106 0.5 -0.4875 0.00386059
0.835106 0.5 0.4875 0.00387074
0 0.5 0.968821 0.00375
0 0.5 -0.968821 0.00375
0.0124865 0.5 -0.968821 0.00375051
0.0124865 0.5 0.968821 0.00375071
0.969689 0.5 -0.0375 0.00394163
0.969689 0.5 0.0375 0.0039434
0.574156 0.5 -0.7875 0.00379226
0.574156 0.5 0.7875 0.00379942
0 0.5 -0.975 0.00375
0 0.5 0.975 0.00375
0.624316 0.5 -0.75 0.0038009
0.624316 0.5 0.75 0.00380873
0.969689 0.5 -0.1125 0.0039389
0.96969 0.5 0.1125 0.0039441
0.523432 0.5 -0.825 0.00378533
0.523432 0.5 0.825 0.00379221
0.67013 0.5 0.7125 0.00381793
0.67013 0.5 -0.7125 0.00380967
0 0.5 -0.981179 0.00375
0 0.5 0.981179 0.00375
0.467897 0.5 0.8625 0.00378481
0.467897 0.5 -0.8625 0.00377847
0.0124865 0.5 -0.981179 0.00375052
0.0124865 0.5 0.981179 0.00375071
0.872064 0.5 -0.45 0.00387585
0.872064 0.5 0.45 0.00388723
0.715434 0.5 -0.675 0.0038202
0.715434 0.5 0.675 0.00382945
0.939201 0.5 -0.3 0.00391322
0.939201 0.5 0.3 0.0039243
0.151149 0.5 0.975 0.00375895
0.151149 0.5 -0.975 0.00375656
0.969689 0.5 -0.1875 0.00393521
0.969689 0.5 0.1875 0.00394364
0.756813 0.5 -0.6375 0.00383095
0.756813 0.5 0.6375 0.00384092
0.411736 0.5 -0.9 0.0037732
0.411736 0.5 0.9 0.00377914
0.90582 0.5 -0.4125 0.00389133
0.90582 0.5 0.4125 0.00390366
0.995005 0.5 0.0749309 0.00395626
0.797732 0.5 -0.6 0.00384338
0.797732 0.5 0.6 0.00385465
1.00005 0.5 -8.47123e-18 0.0039575
0.350249 0.5 -0.9375 0.0037679
0.350249 0.5 0.9375 0.0037732
1.00005 0.5 -0.0749309 0.003955
0.969689 0.5 -0.2625 0.00393037
0.969689 0.5 0.2625 0.00394189
0.835106 0.5 -0.5625 0.0038561
0.835106 0.5 0.5625 0.00386836
1.00005 0.5 -0.149862 0.0039515
0.939201 0.5 -0.375 0.00390763
0.939201 0.5 0.375 0.00392138
1.00029 0.5 0.148988 0.00395895
0.075776 0.5 -1.0125 0.00375314
0.075776 0.5 1.0125 0.00375431
0.288069 0.5 0.975 0.00376843
0.288069 0.5 -0.975 0.00376392
0.872064 0.5 -0.525 0.00387073
0.872064 0.5 0.525 0.00388443
1.00005 0.5 0.224793 0.00395834
1.00005 0.5 -0.224793 0.00394689
0.969689 0.5 0.3375 0.003939
0.96969 0.5 -0.3375 0.00392434
1.0271 0.5 -0.0368226 0.00397277
1.0271 0.5 0.0368226 0.00397499
0.90582 0.5 0.4875 0.00390046
0.905821 0.5 -0.4875 0.00388573
1.0271 0.5 -0.110468 0.0039695
1.0271 0.5 0.110468 0.0039781
0.67013 0.5 0.7875 0.00381711
0.67013 0.5 -0.7875 0.00380735
0.624316 0.5 0.825 0.0038082
0.624316 0.5 -0.825 0.00379905
0.219993 0.5 -1.0125 0.00375981
0.219993 0.5 1.0125 0.00376335
0.574156 0.5 -0.8625 0.00379091
0.574156 0.5 0.8625 0.00379919
0.715434 0.5 -0.75 0.00381727
0.715434 0.5 0.75 0.00382819
0.756813 0.5 0.7125 0.00383925
0.756814 0.5 -0.7125 0.00382745
0.523432 0.5 -0.9 0.00378434
0.523432 0.5 0.9 0.00379213
0.939201 0.5 -0.45 0.00390132
0.939201 0.5 0.45 0.00391783
1.04168 0.5 0 0.00398232
1.0271 0.5 -0.184113 0.00396517
1.0271 0.5 0.184113 0.00397608
0 0.5 -1.04382 0.00375
0 0.5 1.04382 0.00375
0.0124865 0.5 -1.04382 0.00375052
0.0124865 0.5 1.04382 0.00375071
1.00005 0.5 -0.299723 0.00394105
1.00005 0.5 0.299723 0.00395611
1.04168 0.5 -0.0729162 0.00397944
1.04168 0.5 0.0729162 0.00398411
0.797732 0.5 -0.675 0.00383921
0.797732 0.5 0.675 0.00385249
0.467897 0.5 0.9375 0.00378489
0.467897 0.5 -0.9375 0.00377785
0 0.5 -1.05 0.00375
0 0.5 1.05 0.00375
0.835106 0.5 -0.6375 0.00385131
0.835106 0.5 0.6375 0.00386575
1.04168 0.5 -0.145832 0.00397549
1.04168 0.5 0.145832 0.00398478
0.969689 0.5 -0.4125 0.00391753
0.96969 0.5 0.4125 0.00393525
0 0.5 -1.05618 0.00375
0 0.5 1.05618 0.00375
0.0124865 0.5 -1.05618 0.00375052
0.0124865 0.5 1.05618 0.0037507
1.05695 0.5 -0.0360764 0.00398956
1.05695 0.5 0.0360764 0.00399205
0.411736 0.5 -0.975 0.00377279
0.411736 0.5 0.975 0.00377922
0.872064 0.5 -0.6 0.00386521
0.872064 0.5 0.6 0.00388137
1.0271 0.5 -0.257759 0.00395959
1.0271 0.5 0.257759 0.00397468
0.151149 0.5 -1.05 0.0037566
0.151149 0.5 1.05 0.00375895
1.05695 0.5 0.108229 0.00399518
1.05695 0.5 -0.108229 0.00398601
1.04168 0.5 -0.218749 0.00397037
1.04168 0.5 0.218749 0.00398421
0.90582 0.5 -0.5625 0.00387956
0.905821 0.5 0.5625 0.003897
1.00005 0.5 -0.374654 0.0039342
1.00005 0.5 0.374654 0.00395278
0.350249 0.5 1.0125 0.0037733
0.350249 0.5 -1.0125 0.00376773
1.05695 0.5 -0.180382 0.00398135
1.05695 0.5 0.180382 0.00399364
1.07319 0.5 0.0709442 0.00400338
0.939201 0.5 -0.525 0.00389446
0.939201 0.5 0.525 0.00391389
1.0271 0.5 -0.331404 0.00395281
1.0271 0.5 0.331404 0.00397196
1.08112 0.5 3.23815e-17 0.00400574
1.04168 0.5 -0.291665 0.00396401
1.04168 0.5 0.291665 0.00398227
1.08112 0.5 -0.0709442 0.00400247
0.969689 0.5 -0.4875 0.00390983
0.96969 0.5 0.4875 0.00393087
1.05695 0.5 0.252535 0.00399253
1.05695 0.5 -0.252535 0.00397542
0.288069 0.5 -1.05 0.00376383
0.288069 0.5 1.05 0.00376846
0.075776 0.5 -1.0875 0.00375316
0.075776 0.5 1.0875 0.00375426
1.08112 0.5 -0.141888 0.00399809
1.08145 0.5 0.140165 0.00400836
0.715434 0.5 0.825 0.00382681
0.715434 0.5 -0.825 0.00381422
0.756813 0.5 0.7875 0.00383746
0.756814 0.5 -0.7875 0.00382381
0.67013 0.5 -0.8625 0.00380491
0.67013 0.5 0.8625 0.00381616
0.797732 0.5 -0.75 0.00383487
0.797732 0.5 0.75 0.00385018
0.624316 0.5 -0.9 0.00379709
0.624316 0.5 0.9 0.00380753
1.00005 0.5 -0.449585 0.00392642
1.00005 0.5 0.449585 0.00394856
0.835106 0.5 -0.7125 0.00384629
0.835106 0.5 0.7125 0.00386296
0.574156 0.5 -0.9375 0.00378945
0.574157 0.5 0.9375 0.00379882
1.10076 0.5 -0.0349809 0.0040166
1.10076 0.5 0.0349809 0.00401951
1.08112 0.5 -0.212832 0.0039925
1.08112 0.5 0.212832 0.00400868
0.872064 0.5 -0.675 0.0038594
0.872064 0.5 0.675 0.00387807
1.04168 0.5 -0.364581 0.00395661
1.04168 0.5 0.364581 0.00397908
1.0271 0.5 0.405049 0.00396817
1.0271 0.5 -0.405049 0.00394513
1.05695 0.5 -0.324688 0.00396829
1.05695 0.5 0.324688 0.00399003
1.10076 0.5 -0.104943 0.00401258
1.10076 0.5 0.104943 0.00402122
0.523432 0.5 0.975 0.00379188
0.523432 0.5 -0.975 0.00378323
0.90582 0.5 0.6375 0.00389327
0.905821 0.5 -0.6375 0.00387298
0.219992 0.5 1.0875 0.0037633
0.219992 0.5 -1.0875 0.00375983
1.11376 0.5 3.81639e-17 0.00402645
0.939201 0.5 0.6 0.00390959
0.939201 0.5 -0.6 0.00388723
1.10076 0.5 -0.174905 0.00400739
1.10076 0.5 0.174905 0.00402185
0.467897 0.5 -1.0125 0.0037771
0.467897 0.5 1.0125 0.00378478
1.11376 0.5 -0.0693118 0.00402283
1.11376 0.5 0.0693118 0.00402889
1.08112 0.5 0.283777 0.00400711
1.08112 0.5 -0.283777 0.00398567
0 0.5 -1.11882 0.00375
0 0.5 1.11882 0.00375
0.0124865 0.5 -1.11882 0.00375052
0.0124865 0.5 1.11882 0.0037507
0.969689 0.5 -0.5625 0.0039019
0.969689 0.5 0.5625 0.0039262
1.11376 0.5 0.138624 0.00403023
1.11376 0.5 -0.138624 0.00401807
0 0.5 -1.125 0.00375
0 0.5 1.125 0.00375
1.10076 0.5 0.244866 0.00402121
1.10076 0.5 -0.244866 0.00400091
0.411736 0.5 -1.05 0.00377227
0.411736 0.5 1.05 0.00377914
1.05695 0.5 -0.396841 0.00396028
1.05695 0.5 0.396841 0.00398635
1.00005 0.5 -0.524516 0.00391797
1.00005 0.5 0.524516 0.00394365
1.04168 0.5 -0.437497 0.00394821
1.04168 0.5 0.437497 0.00397481
0 0.5 -1.13118 0.00375
0 0.5 1.13118 0.00375
0.0124865 0.5 -1.13118 0.00375052
0.0124865 0.5 1.13118 0.00375069
1.11376 0.5 -0.207935 0.00401206
1.11376 0.5 0.207935 0.0040303
1.0271 0.5 -0.478694 0.0039364
1.0271 0.5 0.478694 0.00396337
0.151149 0.5 -1.125 0.00375659
0.151149 0.5 1.125 0.00375887
1.08112 0.5 -0.354722 0.00397782
1.08112 0.5 0.354722 0.0040042
1.13882 0.5 -0.0340295 0.00404132
1.13882 0.5 0.0340295 0.00404465
0.350249 0.5 -1.0875 0.00376745
0.350249 0.5 1.0875 0.00377326
1.13882 0.5 -0.102088 0.00403684
1.13882 0.5 0.102088 0.00404778
1.10076 0.5 -0.314829 0.00399327
1.10076 0.5 0.314829 0.00401912
0.756813 0.5 -0.8625 0.00382007
0.756814 0.5 0.8625 0.00383554
0.797732 0.5 -0.825 0.00383042
0.797732 0.5 0.825 0.00384775
1.11376 0.5 -0.277247 0.00400483
1.11376 0.5 0.277247 0.00402906
0.835106 0.5 0.7875 0.00386003
0.835106 0.5 -0.7875 0.00384114
0.715434 0.5 -0.9 0.00381108
0.715434 0.5 0.9 0.00382531
0.872064 0.5 -0.75 0.00385345
0.872064 0.5 0.75 0.00387455
1.13882 0.5 0.170147 0.00404769
1.13882 0.5 -0.170147 0.00403114
0.67013 0.5 -0.9375 0.00380237
0.67013 0.5 0.9375 0.00381508
0.905821 0.5 -0.7125 0.00386622
0.905821 0.5 0.7125 0.00388926
1.05695 0.5 0.468994 0.00398159
1.05695 0.5 -0.468994 0.00395117
0.939201 0.5 -0.675 0.00387976
0.939201 0.5 0.675 0.00390497
0.624316 0.5 0.975 0.00380671
0.624316 0.5 -0.975 0.00379503
1.04168 0.5 -0.510414 0.00393901
1.04168 0.5 0.510414 0.00396959
0.969689 0.5 -0.6375 0.00389375
0.96969 0.5 0.6375 0.00392089
0.288069 0.5 -1.125 0.00376364
0.288069 0.5 1.125 0.00376834
1.16179 0.5 5.78241e-19 0.00405928
1.08112 0.5 0.425666 0.0040001
1.08112 0.5 -0.425666 0.00396897
1.13882 0.5 -0.238206 0.00402415
1.13882 0.5 0.238206 0.00404743
1.16179 0.5 0.0669104 0.00406501
1.16179 0.5 -0.0669104 0.00405507
0.574156 0.5 -1.0125 0.00378787
0.574156 0.5 1.0125 0.00379827
0.075776 0.5 -1.1625 0.00375316
0.075776 0.5 1.1625 0.00375418
1.00005 0.5 -0.599447 0.00390915
1.00005 0.5 0.599447 0.00393806
1.10076 0.5 0.384791 0.00401571
1.10076 0.5 -0.384791 0.00398474
1.0271 0.5 -0.55234 0.00392712
1.0271 0.5 0.55234 0.00395775
1.11376 0.5 -0.346559 0.00399657
1.11376 0.5 0.346559 0.00402643
1.16179 0.5 -0.133821 0.00404964
1.16179 0.5 0.133821 0.00406441
0.523432 0.5 -1.05 0.003782
0.523432 0.5 1.05 0.00379147
1.17463 0.5 -0.0331343 0.0040658
1.17463 0.5 0.0331343 0.00406957
1.17463 0.5 -0.0994029 0.00406085
1.17463 0.5 0.0994029 0.004072
1.16179 0.5 -0.200731 0.00404295
1.16179 0.5 0.200731 0.00406458
1.13882 0.5 -0.306265 0.00401603
1.13882 0.5 0.306265 0.00404574
0.219992 0.5 -1.1625 0.00375976
0.219992 0.5 1.1625 0.00376313
0.467897 0.5 -1.0875 0.00377624
0.467897 0.5 1.0875 0.00378452
1.17463 0.5 0.165672 0.00407327
1.17463 0.5 -0.165672 0.00405464
1.05695 0.5 -0.541147 0.00394154
1.05695 0.5 0.541147 0.00397592
1.18772 0.5 -5.78241e-19 0.00407726
1.11376 0.5 -0.41587 0.00398734
1.11376 0.5 0.41587 0.00402252
1.18772 0.5 -0.065614 0.00407271
1.18772 0.5 0.065614 0.00408068
1.08112 0.5 -0.49661 0.00395933
1.08112 0.5 0.49661 0.00399493
1.10076 0.5 -0.454752 0.00397513
1.10076 0.5 0.454752 0.00401112
1.18534 0.5 0.118202 0.0040825
1.16179 0.5 -0.267642 0.00403504
1.16179 0.5 0.267642 0.00406386
0 0.5 -1.19382 0.00375
0 0.5 1.19382 0.00375
0.0124865 0.5 1.19382 0.00375069
0.0124865 0.5 -1.19382 0.00375052
1.04168 0.5 -0.58333 0.00392933
1.04168 0.5 0.58333 0.00396347
1.18772 0.5 -0.131228 0.00406693
1.17463 0.5 -0.23194 0.00404714
1.17463 0.5 0.23194 0.00407338
0.411736 0.5 -1.125 0.00377164
0.411736 0.5 1.125 0.00377892
1.13882 0.5 -0.374324 0.00400699
1.13882 0.5 0.374324 0.00404265
0 0.5 -1.2 0.00375
0 0.5 1.2 0.00375
0.905821 0.5 0.7875 0.00388496
0.905821 0.5 -0.7875 0.00385941
0.872064 0.5 -0.825 0.00384743
0.872064 0.5 0.825 0.00387084
0.835106 0.5 0.8625 0.00385699
0.835106 0.5 -0.8625 0.00383595
0.939201 0.5 -0.75 0.00387214
0.939201 0.5 0.75 0.0039002
0.797732 0.5 -0.9 0.00382593
0.797732 0.5 0.9 0.00384521
1.0271 0.5 0.625985 0.00395125
1.0271 0.5 -0.625985 0.00391742
0.969689 0.5 0.7125 0.0039155
0.96969 0.5 -0.7125 0.00388541
1.18772 0.5 -0.196842 0.00405986
1.18772 0.5 0.196842 0.00408332
0.756814 0.5 -0.9375 0.00381628
0.756814 0.5 0.9375 0.00383353
0 0.5 1.20618 0.00375
0 0.5 -1.20618 0.00375
1.00005 0.5 -0.674378 0.00390009
1.00005 0.5 0.674378 0.00393206
0.0124865 0.5 1.20618 0.00375067
0.0124865 0.5 -1.20618 0.00375052
1.16179 0.5 -0.334552 0.0040261
1.16179 0.5 0.334552 0.00406169
0.715434 0.5 0.975 0.00382368
0.715434 0.5 -0.975 0.00380788
0.151149 0.5 -1.2 0.00375653
0.151149 0.5 1.2 0.0037587
1.20942 0.5 0.0322645 0.00409589
1.20942 0.5 -0.0322645 0.00409126
1.17463 0.5 -0.298209 0.00403849
1.17463 0.5 0.298209 0.00407207
1.20942 0.5 -0.0967935 0.00408579
1.20942 0.5 0.0967935 0.00409833
0.350249 0.5 -1.1625 0.00376706
0.350249 0.5 1.1625 0.00377306
0.67013 0.5 1.0125 0.00381385
0.67013 0.5 -1.0125 0.00379976
1.11376 0.5 0.485183 0.00401747
1.11376 0.5 -0.485183 0.00397736
1.18772 0.5 0.262456 0.00408285
1.18772 0.5 -0.262456 0.00405157
1.10076 0.5 -0.524714 0.00396506
1.10076 0.5 0.524714 0.00400551
1.20942 0.5 -0.161322 0.00407903
1.20942 0.5 0.161322 0.00409993
1.08112 0.5 -0.567554 0.00394923
1.08112 0.5 0.567554 0.0039888
0.624316 0.5 -1.05 0.00379288
0.624316 0.5 1.05 0.00380574
1.13882 0.5 -0.442383 0.00399696
1.13882 0.5 0.442383 0.00403828
1.05695 0.5 0.6133 0.00396931
1.05695 0.5 -0.6133 0.00393147
1.16179 0.5 -0.401463 0.00401623
1.16179 0.5 0.401463 0.00405813
0.574156 0.5 -1.0875 0.0037862
0.574156 0.5 1.0875 0.00379755
1.17463 0.5 0.364477 0.00406928
1.17463 0.5 -0.364477 0.00402894
1.20942 0.5 -0.225851 0.00407096
1.20942 0.5 0.225851 0.00410036
1.23036 0.5 -1.32995e-17 0.00411017
1.2294 0.5 0.0634819 0.00411399
1.04168 0.5 -0.656246 0.00391924
1.04168 0.5 0.656246 0.00395666
1.23036 0.5 -0.0634819 0.00410497
1.18772 0.5 0.32807 0.00408093
1.18772 0.5 -0.32807 0.00404225
0.288069 0.5 -1.2 0.00376336
0.288069 0.5 1.2 0.00376807
1.23036 0.5 -0.126964 0.00409847
1.23036 0.5 0.126964 0.00411651
0.075776 0.5 -1.2375 0.00375314
0.075776 0.5 1.2375 0.00375407
0.523432 0.5 -1.125 0.00378069
0.523432 0.5 1.125 0.00379094
1.0271 0.5 -0.69963 0.0039075
1.0271 0.5 0.69963 0.00394456
1.24274 0.5 0.0314313 0.00412201
1.24274 0.5 -0.0314313 0.00411727
1.20942 0.5 0.29038 0.00409942
1.20942 0.5 -0.29038 0.00406175
1.11376 0.5 -0.554494 0.00396694
1.11376 0.5 0.554494 0.00401141
1.23036 0.5 -0.190445 0.00409066
1.23036 0.5 0.190445 0.00411774
1.24274 0.5 -0.0942942 0.00411126
1.24274 0.5 0.0942942 0.00412528
1.13882 0.5 0.510442 0.00403279
1.13882 0.5 -0.510442 0.00398651
0.969689 0.5 -0.7875 0.0038769
0.969689 0.5 0.7875 0.00391017
1.00005 0.5 -0.749309 0.00389087
1.00005 0.5 0.749309 0.00392608
0.939201 0.5 -0.825 0.00386447
0.939201 0.5 0.825 0.00389519
0.90582 0.5 0.8625 0.00388042
0.90582 0.5 -0.8625 0.00385255
1.17463 0.5 -0.430746 0.00401843
1.17463 0.5 0.430746 0.00406512
1.10076 0.5 -0.594676 0.00395455
1.10076 0.5 0.594676 0.00399894
1.18772 0.5 -0.393684 0.00403202
1.18772 0.5 0.393684 0.00407756
1.24274 0.5 -0.157157 0.00410391
1.24274 0.5 0.157157 0.00412722
1.16179 0.5 -0.468373 0.0040057
1.16179 0.5 0.468373 0.00405331
0.467897 0.5 -1.1625 0.00377528
0.467897 0.5 1.1625 0.00378417
0.872064 0.5 -0.9 0.00384141
0.872064 0.5 0.9 0.00386702
1.25401 0.5 2.08167e-17 0.00412835
0.835106 0.5 0.9375 0.00385385
0.835106 0.5 -0.9375 0.00383076
1.25401 0.5 -0.0622994 0.00412278
1.25401 0.5 0.0622994 0.00413285
1.08112 0.5 -0.638498 0.00393858
1.08112 0.5 0.638498 0.00398174
1.23036 0.5 -0.253927 0.00408162
1.23036 0.5 0.253927 0.00411771
0.219992 0.5 1.2375 0.00376283
0.219992 0.5 -1.2375 0.0037596
1.25309 0.5 0.121964 0.00413529
1.05695 0.5 0.685452 0.00396204
1.05695 0.5 -0.685452 0.00392086
0.797732 0.5 0.975 0.00384257
0.797732 0.5 -0.975 0.00382143
1.25401 0.5 -0.124599 0.0041159
1.20942 0.5 -0.354909 0.00405162
1.20942 0.5 0.354909 0.00409696
1.24274 0.5 -0.220019 0.00409524
1.24274 0.5 0.220019 0.00412795
0.756814 0.5 -1.0125 0.00381246
0.756813 0.5 1.0125 0.00383141
1.25401 0.5 -0.186898 0.00410768
1.25401 0.5 0.186898 0.00413674
0.411736 0.5 -1.2 0.00377091
0.411736 0.5 1.2 0.00377852
0 0.5 -1.26882 0.00375
0 0.5 1.26882 0.00375
0.0124865 0.5 1.26882 0.00375067
0.0124865 0.5 -1.26882 0.00375052
0.715434 0.5 -1.05 0.00380463
0.715434 0.5 1.05 0.00382193
1.23036 0.5 -0.31741 0.00407155
1.23036 0.5 0.31741 0.00411624
1.04168 0.5 -0.729162 0.00390881
1.04168 0.5 0.729162 0.00394966
1.18772 0.5 -0.459298 0.00402116
1.18772 0.5 0.459298 0.00407285
1.24274 0.5 -0.282882 0.00408543
1.24274 0.5 0.282882 0.00412735
0 0.5 -1.275 0.00375
0 0.5 1.275 0.00375
1.27472 0.5 -0.0306319 0.004144
1.27472 0.5 0.0306319 0.00414927
1.17463 0.5 0.497015 0.00405974
1.17463 0.5 -0.497015 0.00400758
1.11376 0.5 -0.623806 0.00395596
1.11376 0.5 0.623806 0.00400433
1.13882 0.5 -0.578501 0.00397559
1.13882 0.5 0.578501 0.0040263
0.67013 0.5 -1.0875 0.0037971
0.67013 0.5 1.0875 0.00381247
1.27472 0.5 -0.0918959 0.0041374
1.27472 0.5 0.0918959 0.00414979
1.25401 0.5 -0.249197 0.00409821
1.25401 0.5 0.249197 0.00413691
1.16179 0.5 -0.535284 0.00399474
1.16179 0.5 0.535284 0.00404738
1.20942 0.5 -0.419438 0.00404062
1.20942 0.5 0.419438 0.00409304
0 0.5 -1.28118 0.00375
0 0.5 1.28118 0.00375
0.0124865 0.5 1.28118 0.00375065
0.0124865 0.5 -1.28118 0.00375051
1.27472 0.5 0.15316 0.00415536
1.27472 0.5 -0.15316 0.00412943