# nutMean  POINT_DATA 63840
# x  y  z  nutMean
0 0.5 3.39583e-17 0.0154933
0 0.5 -0.00617931 0.0155372
0 0.5 0.00617931 0.0154552
0.0124865 0.5 -0.00617931 0.0166599
0.0124865 0.5 0.00617931 0.0165448
0 0.5 -0.0688207 0.0158605
0 0.5 0.0688207 0.0150058
0.0124865 0.5 -0.0688207 0.0169832
0.0124865 0.5 0.0688207 0.0160953
0 0.5 -0.075 0.0158807
0 0.5 0.075 0.0149547
0 0.5 -0.0811793 0.0159071
0 0.5 0.0811793 0.0149091
0.0124865 0.5 -0.0811793 0.0170287
0.0124865 0.5 0.0811793 0.0159555
0.075776 0.5 -0.0375 0.0225199
0.075776 0.5 0.0375 0.021831
0.075776 0.5 -0.1125 0.0227973
0.075776 0.5 0.1125 0.0209898
0 0.5 -0.143821 0.0160837
0 0.5 0.143821 0.0144075
0.0124865 0.5 -0.143821 0.0172053
0.0124865 0.5 0.143821 0.0154539
0 0.5 -0.15 0.0160921
0 0.5 0.15 0.014354
0.151149 0.5 -0.00137318 0.019838
0 0.5 -0.156179 0.0161073
0 0.5 0.156179 0.0143054
0.0124865 0.5 -0.156179 0.0172251
0.0124865 0.5 0.156179 0.0153039
0.151149 0.5 0.075 0.0193606
0.151149 0.5 -0.075 0.0201344
0.075776 0.5 -0.1875 0.0229146
0.075776 0.5 0.1875 0.0200872
0.151149 0.5 0.15 0.0187477
0.151149 0.5 -0.15 0.0202802
0 0.5 -0.218821 0.0161893
0 0.5 0.218821 0.0137938
0.0124865 0.5 -0.218821 0.0173071
0.0124865 0.5 0.218821 0.0147923
0.219992 0.5 0.0375 0.0175806
0.219993 0.5 -0.0375 0.0177244
0 0.5 -0.225 0.0161901
0 0.5 0.225 0.0137418
0 0.5 -0.231179 0.0161979
0 0.5 0.231179 0.0136933
0.0124865 0.5 -0.231179 0.0173536
0.0124865 0.5 0.231179 0.0146435
0.219992 0.5 0.1125 0.0173174
0.219993 0.5 -0.1125 0.0178353
0.151149 0.5 -0.225 0.020459
0.151149 0.5 0.225 0.0180611
0.075776 0.5 -0.2625 0.0231965
0.075776 0.5 0.2625 0.0191913
0.288069 0.5 -0.00137318 0.0143478
0.219992 0.5 0.1875 0.0168382
0.219993 0.5 -0.1875 0.0179195
0 0.5 0.293821 0.0132032
0 0.5 -0.293821 0.0161175
0.0124865 0.5 -0.293821 0.0172732
0.0124865 0.5 0.293821 0.0141534
0.288069 0.5 -0.075 0.0143985
0.288069 0.5 0.075 0.0142222
0 0.5 -0.3 0.0160932
0 0.5 0.3 0.0131558
0 0.5 0.306179 0.0131095
0 0.5 -0.306179 0.0160757
0.0124865 0.5 -0.306179 0.0172029
0.0124865 0.5 0.306179 0.0140139
0.288069 0.5 -0.15 0.014478
0.288069 0.5 0.15 0.0140569
0.151149 0.5 -0.3 0.0204203
0.151149 0.5 0.3 0.0173844
0.219992 0.5 -0.2625 0.0181543
0.219992 0.5 0.2625 0.0163406
0.075776 0.5 0.3375 0.0183526
0.075776 0.5 -0.3375 0.0227813
0.350249 0.5 -0.0375 0.0112133
0.350249 0.5 0.0375 0.0112042
0.288069 0.5 -0.225 0.0146234
0.288069 0.5 0.225 0.0138353
0.350249 0.5 0.1125 0.0111931
0.350249 0.5 -0.1125 0.011247
0 0.5 0.368821 0.0126638
0 0.5 -0.368821 0.01582
0.0124865 0.5 -0.368821 0.0169472
0.0124865 0.5 0.368821 0.0135681
0 0.5 -0.375 0.0157869
0 0.5 0.375 0.0126229
0 0.5 -0.381179 0.0157591
0 0.5 0.381179 0.0125813
0.0124865 0.5 -0.381179 0.016852
0.0124865 0.5 0.381179 0.0134451
0.350249 0.5 -0.1875 0.0113384
0.350249 0.5 0.1875 0.0112595
0.219992 0.5 -0.3375 0.0178943
0.219992 0.5 0.3375 0.0158393
0.151149 0.5 -0.375 0.020051
0.151149 0.5 0.375 0.0167482
0.411736 0.5 -0.00137318 0.009579
0.288069 0.5 -0.3 0.0146814
0.288069 0.5 0.3 0.0135924
0.411736 0.5 -0.075 0.00958589
0.411736 0.5 0.075 0.00957345
0.075776 0.5 -0.4125 0.0222138
0.075776 0.5 0.4125 0.0176081
0.350249 0.5 -0.2625 0.0115114
0.350249 0.5 0.2625 0.0112501
0.411736 0.5 -0.15 0.009645
0.411736 0.5 0.15 0.00961243
0 0.5 -0.443821 0.015423
0 0.5 0.443821 0.0121948
0.0124865 0.5 -0.443821 0.016516
0.0124865 0.5 0.443821 0.0130586
0 0.5 -0.45 0.0153851
0 0.5 0.45 0.0121608
0 0.5 -0.456179 0.0153496
0 0.5 0.456179 0.0121261
0.0124865 0.5 -0.456179 0.0164039
0.0124865 0.5 0.456179 0.0129564
0.219992 0.5 -0.4125 0.0176423
0.219993 0.5 0.4125 0.0153576
0.411736 0.5 -0.225 0.00975171
0.411736 0.5 0.225 0.00966765
0.467897 0.5 0.0375 0.00802435
0.467897 0.5 -0.0375 0.00802047
0.288069 0.5 -0.375 0.0146046
0.288069 0.5 0.375 0.01336
0.151149 0.5 -0.45 0.019612
0.151149 0.5 0.45 0.016178
0.467897 0.5 -0.1125 0.00805705
0.467897 0.5 0.1125 0.00806425
0.350249 0.5 0.3375 0.0112544
0.350249 0.5 -0.3375 0.0115867
0.075776 0.5 -0.4875 0.0215448
0.075776 0.5 0.4875 0.0169802
0.467897 0.5 -0.1875 0.00813224
0.467897 0.5 0.1875 0.00812357
0.411736 0.5 -0.3 0.00987817
0.411736 0.5 0.3 0.00971865
0 0.5 -0.518821 0.0149724
0 0.5 0.518821 0.0118041
0.0124865 0.5 0.518821 0.0126345
0.0124865 0.5 -0.518821 0.0160266
0.523432 0.5 -0.00137318 0.00708468
0 0.5 -0.525 0.0149341
0 0.5 0.525 0.011776
0.523432 0.5 -0.075 0.00709505
0.523432 0.5 0.075 0.00709815
0 0.5 -0.531179 0.014895
0 0.5 0.531179 0.0117478
0.0124865 0.5 -0.531179 0.0159103
0.0124865 0.5 0.531179 0.0125507
0.288069 0.5 -0.45 0.014534
0.288069 0.5 0.45 0.0131475
0.219992 0.5 -0.4875 0.0173497
0.219993 0.5 0.4875 0.0149148
0.467897 0.5 -0.2625 0.00822253
0.467897 0.5 0.2625 0.00822503
0.350249 0.5 -0.4125 0.0116938
0.350249 0.5 0.4125 0.0112707
0.523432 0.5 -0.15 0.00714755
0.523432 0.5 0.15 0.00714912
0.151149 0.5 -0.525 0.0191324
0.151149 0.5 0.525 0.0156869
0.411736 0.5 -0.375 0.0100075
0.411736 0.5 0.375 0.00978194
0.075776 0.5 -0.5625 0.0208512
0.075776 0.5 0.5625 0.016465
0.523432 0.5 -0.225 0.00722594
0.523432 0.5 0.225 0.0072284
0.574156 0.5 -0.0375 0.0061856
0.574156 0.5 0.0375 0.0061845
0.467897 0.5 0.3375 0.00832639
0.467897 0.5 -0.3375 0.00838953
0.574156 0.5 -0.1125 0.00622081
0.574156 0.5 0.1125 0.00622354
0 0.5 -0.593821 0.0145199
0 0.5 0.593821 0.011492
0.0124865 0.5 -0.593821 0.0155351
0.0124865 0.5 0.593821 0.0122949
0.288069 0.5 -0.525 0.0144669
0.288069 0.5 0.525 0.0129633
0 0.5 -0.6 0.0144855
0 0.5 0.6 0.0114703
0.350249 0.5 -0.4875 0.0118232
0.350249 0.5 0.4875 0.0112974
0.523432 0.5 -0.3 0.00735104
0.523432 0.5 0.3 0.00732985
0.219992 0.5 -0.5625 0.0170584
0.219992 0.5 0.5625 0.0145256
0.574156 0.5 -0.1875 0.0062842
0.574156 0.5 0.1875 0.00628903
0 0.5 -0.606179 0.0144489
0 0.5 0.606179 0.0114483
0.0124865 0.5 -0.606179 0.0154305
0.0124865 0.5 0.606179 0.0122296
0.411736 0.5 -0.45 0.0101584
0.411736 0.5 0.45 0.00986232
0.151149 0.5 -0.6 0.0186644
0.151149 0.5 0.6 0.0152819
0.62168 0.5 2.64545e-17 0.00561921
0.467897 0.5 0.4125 0.00845127
0.467897 0.5 -0.4125 0.00855305
0.624316 0.5 0.0729402 0.00559864
0.624316 0.5 -0.075 0.00560141
0.574156 0.5 -0.2625 0.00636935
0.574157 0.5 0.2625 0.00638
0.075776 0.5 -0.6375 0.0202125
0.075776 0.5 0.6375 0.0160688
0.624316 0.5 -0.15 0.005649
0.624316 0.5 0.15 0.00564695
0.523432 0.5 -0.375 0.00751385
0.523432 0.5 0.375 0.00744899
0.350249 0.5 -0.5625 0.0119809
0.350249 0.5 0.5625 0.0113367
0.624316 0.5 -0.225 0.00572531
0.624316 0.5 0.225 0.00572106
0.288069 0.5 0.6 0.0128139
0.288069 0.5 -0.6 0.014418
0.574156 0.5 -0.3375 0.00652771
0.574156 0.5 0.3375 0.00649201
0.411736 0.5 -0.525 0.0103405
0.411736 0.5 0.525 0.00995884
0 0.5 -0.668821 0.0141046
0 0.5 0.668821 0.011258
0.0124865 0.5 -0.668821 0.0150861
0.0124865 0.5 0.668821 0.0120393
0.67013 0.5 0.0375 0.00500884
0.67013 0.5 -0.0375 0.00501387
0.219993 0.5 -0.6375 0.0167829
0.219993 0.5 0.6375 0.0141986
0 0.5 -0.675 0.014074
0 0.5 0.675 0.0112431
0.467897 0.5 0.4875 0.008598
0.467897 0.5 -0.4875 0.00875266
0.67013 0.5 -0.1125 0.00504635
0.67013 0.5 0.1125 0.00503904
0 0.5 -0.681179 0.014042
0 0.5 0.681179 0.0112271
0.0124865 0.5 -0.681179 0.0149953
0.0124865 0.5 0.681179 0.0119931
0.523432 0.5 -0.45 0.00769564
0.523432 0.5 0.45 0.00759186
0.151149 0.5 -0.675 0.0182409
0.151149 0.5 0.675 0.0149662
0.624316 0.5 -0.3 0.00584201
0.624316 0.5 0.3 0.0058196
0.67013 0.5 0.1875 0.00509796
0.67013 0.5 -0.1875 0.00510579
0.574156 0.5 -0.4125 0.00669036
0.574157 0.5 0.4125 0.00662966
0.708171 0.5 1.88651e-17 0.00466788
0.075776 0.5 -0.7125 0.0196489
0.075776 0.5 0.7125 0.0157853
0.715434 0.5 0.0736268 0.00462105
0.715434 0.5 -0.075 0.00462139
0.67013 0.5 0.2625 0.00517946
0.67013 0.5 -0.2625 0.00520284
0.350249 0.5 -0.6375 0.012165
0.350249 0.5 0.6375 0.0113899
0.411736 0.5 -0.6 0.010555
0.411736 0.5 0.6 0.0100713
0.624316 0.5 -0.375 0.00599168
0.624316 0.5 0.375 0.00593874
0.715434 0.5 -0.15 0.00466669
0.715434 0.5 0.15 0.00465242
0.467897 0.5 -0.5625 0.00898994
0.467897 0.5 0.5625 0.00876388
0.288069 0.5 -0.675 0.0143954
0.288069 0.5 0.675 0.0127032
0.523432 0.5 -0.525 0.0079147
0.523432 0.5 0.525 0.00775703
0 0.5 -0.743821 0.0137425
0 0.5 0.743821 0.0111008
0.0124865 0.5 -0.743821 0.0146957
0.0124865 0.5 0.743821 0.0118668
0.219992 0.5 0.7125 0.0139388
0.219992 0.5 -0.7125 0.0165432
0.715434 0.5 -0.225 0.00474212
0.715434 0.5 0.225 0.00471796
0 0.5 -0.75 0.0137163
0 0.5 0.75 0.0110929
0.67013 0.5 0.3375 0.00528945
0.67013 0.5 -0.3375 0.00532958
0.574156 0.5 -0.4875 0.00689174
0.574156 0.5 0.4875 0.00679113
0 0.5 -0.756179 0.0136894
0 0.5 0.756179 0.0110833
0.0124865 0.5 -0.756179 0.0146196
0.0124865 0.5 0.756179 0.0118412
0.756813 0.5 -0.0375 0.00421559
0.756813 0.5 0.0375 0.00420802
0.151149 0.5 -0.75 0.0178802
0.151149 0.5 0.75 0.0147415
0.756813 0.5 -0.1125 0.00424755
0.756813 0.5 0.1125 0.00423083
0.624316 0.5 -0.45 0.00616775
0.624316 0.5 0.45 0.00608091
0.715434 0.5 -0.3 0.00484444
0.715434 0.5 0.3 0.00480754
0.756813 0.5 0.1875 0.00428036
0.756813 0.5 -0.1875 0.00430494
0.67013 0.5 -0.4125 0.00548163
0.67013 0.5 0.4125 0.00540696
0.411736 0.5 -0.675 0.0108008
0.411736 0.5 0.675 0.0101994
0.467897 0.5 0.6375 0.00894766
0.467897 0.5 -0.6375 0.00926348
0.075776 0.5 -0.7875 0.0191791
0.075776 0.5 0.7875 0.0156198
0.350249 0.5 -0.7125 0.0123762
0.350249 0.5 0.7125 0.0114577
0.523432 0.5 -0.6 0.00817078
0.523432 0.5 0.6 0.00794295
0.797732 0.5 2.68882e-17 0.00392277
0.756813 0.5 -0.2625 0.00439304
0.756814 0.5 0.2625 0.00435304
0.797732 0.5 0.0736268 0.00393189
0.797732 0.5 -0.075 0.00394261
0.288069 0.5 -0.75 0.0144071
0.288069 0.5 0.75 0.0126337
0.574156 0.5 -0.5625 0.00712968
0.574157 0.5 0.5625 0.00697677
0.715434 0.5 -0.375 0.00497659
0.715434 0.5 0.375 0.00491871
0.797732 0.5 -0.15 0.0039855
0.797732 0.5 0.15 0.00396221
0.624316 0.5 -0.525 0.00638033
0.624316 0.5 0.525 0.00624996
0.219992 0.5 -0.7875 0.0163528
0.219992 0.5 0.7875 0.0137489
0 0.5 -0.818821 0.0134461
0 0.5 0.818821 0.01102
0.0124865 0.5 0.818821 0.0117779
0.0124865 0.5 -0.818821 0.0143764
0 0.5 -0.825 0.0134259
0 0.5 0.825 0.0110166
0.756813 0.5 0.3375 0.00444776
0.756814 0.5 -0.3375 0.0044913
0.67013 0.5 -0.4875 0.00567045
0.67013 0.5 0.4875 0.00555976
0.797732 0.5 -0.225 0.00405371
0.797732 0.5 0.225 0.00401935
0 0.5 -0.831179 0.0134043
0 0.5 0.831179 0.0110139
0.0124865 0.5 -0.831179 0.0143174
0.0124865 0.5 0.831179 0.0117688
0.835106 0.5 0.0375 0.00364166
0.835106 0.5 -0.0375 0.00364998
0.151149 0.5 -0.825 0.0175959
0.151149 0.5 0.825 0.0146068
0.835106 0.5 0.1125 0.00366011
0.835106 0.5 -0.1125 0.00368146
0.715434 0.5 -0.45 0.00514316
0.715434 0.5 0.45 0.00504825
0.797732 0.5 -0.3 0.00414436
0.797732 0.5 0.3 0.00409806
0.467897 0.5 0.7125 0.00914731
0.467897 0.5 -0.7125 0.00957244
0.523432 0.5 -0.675 0.00846353
0.523432 0.5 0.675 0.00814768
0.411736 0.5 -0.75 0.0110772
0.411736 0.5 0.75 0.0103428
0.835106 0.5 -0.1875 0.00373236
0.835106 0.5 0.1875 0.00370209
0.574156 0.5 -0.6375 0.0074052
0.574157 0.5 0.6375 0.00718398
0.350249 0.5 -0.7875 0.0126134
0.350249 0.5 0.7875 0.0115421
0.756813 0.5 -0.4125 0.00464352
0.756814 0.5 0.4125 0.00457046
0.075776 0.5 -0.8625 0.0188204
0.075776 0.5 0.8625 0.0155617
0.624316 0.5 0.6 0.00644221
0.624316 0.5 -0.6 0.00662911
0.872064 0.5 5.91974e-17 0.0034199
0.870122 0.5 0.075 0.0034381
0.288069 0.5 -0.825 0.0144572
0.288069 0.5 0.825 0.0126071
0.67013 0.5 -0.5625 0.00589336
0.67013 0.5 0.5625 0.00573652
0.872064 0.5 -0.075 0.00344041
0.835106 0.5 -0.2625 0.00380919
0.835106 0.5 0.2625 0.0037668
0.797732 0.5 -0.375 0.00426396
0.797732 0.5 0.375 0.00420053
0.872064 0.5 0.14794 0.00345121
0.872064 0.5 -0.15 0.00347924
0.715434 0.5 -0.525 0.00534058
0.715434 0.5 0.525 0.00520192
0.219992 0.5 0.8625 0.0136266
0.219993 0.5 -0.8625 0.0162173
0 0.5 -0.893821 0.0132215
0 0.5 0.893821 0.0109938
0.0124865 0.5 -0.893821 0.0141347
0.0124865 0.5 0.893821 0.0117487
0 0.5 -0.9 0.0132084
0 0.5 0.9 0.0109897
0.756813 0.5 -0.4875 0.00481707
0.756813 0.5 0.4875 0.00469613
0.872064 0.5 -0.225 0.00353828
0.872064 0.5 0.225 0.00350061
0.835106 0.5 -0.3375 0.00390878
0.835106 0.5 0.3375 0.00384998
0 0.5 0.906179 0.0109882
0 0.5 -0.906179 0.0131921
0.0124865 0.5 -0.906179 0.0140949
0.0124865 0.5 0.906179 0.0117353
0.90582 0.5 -0.0375 0.00320731
0.90582 0.5 0.0375 0.00319759
0.151149 0.5 -0.9 0.0173946
0.151149 0.5 0.9 0.0145357
0.90582 0.5 -0.1125 0.0032398
0.905821 0.5 0.1125 0.0032124
0.523432 0.5 -0.75 0.00879209
0.523432 0.5 0.75 0.00836958
0.574156 0.5 -0.7125 0.00771808
0.574156 0.5 0.7125 0.00741085
0.797732 0.5 -0.45 0.0044166
0.797732 0.5 0.45 0.004318
0.467897 0.5 0.7875 0.00936123
0.467897 0.5 -0.7875 0.00991484
0.624316 0.5 -0.675 0.00691498
0.624316 0.5 0.675 0.00665594
0.411736 0.5 -0.825 0.011383
0.411736 0.5 0.825 0.0105026
0.872064 0.5 0.3 0.00357022
0.872064 0.5 -0.3 0.00362463
0.67013 0.5 -0.6375 0.00615292
0.67013 0.5 0.6375 0.00593636
0.90582 0.5 0.1875 0.00324749
0.905821 0.5 -0.1875 0.00328041
0.350249 0.5 -0.8625 0.0128759
0.350249 0.5 0.8625 0.0116471
0.835106 0.5 -0.4125 0.00403759
0.835106 0.5 0.4125 0.00395977
0.715434 0.5 -0.6 0.0055722
0.715434 0.5 0.6 0.00538225
0.939201 0.5 2.75387e-17 0.0030911
0.075776 0.5 0.9375 0.015521
0.075776 0.5 -0.9375 0.0185717
0.939111 0.5 0.075 0.00309584
0.939201 0.5 -0.075 0.00311197
0.756813 0.5 0.5625 0.0048566
0.756814 0.5 -0.5625 0.00502226
0.90582 0.5 0.2625 0.00330361
0.905821 0.5 -0.2625 0.00334859
0.288069 0.5 -0.9 0.0145477
0.288069 0.5 0.9 0.012621
0.872064 0.5 -0.375 0.00373407
0.872064 0.5 0.375 0.00366042
0.939201 0.5 0.148627 0.00312129
0.939201 0.5 -0.15 0.00314755
0.797732 0.5 -0.525 0.00459735
0.797732 0.5 0.525 0.00445431
0.219992 0.5 0.9375 0.0135656
0.219992 0.5 -0.9375 0.0161409
0.939201 0.5 -0.225 0.0031983
0.939201 0.5 0.225 0.00316542
0.905821 0.5 -0.3375 0.00344952
0.90582 0.5 0.3375 0.00337839
0.835106 0.5 -0.4875 0.00419441
0.835106 0.5 0.4875 0.00407203
0 0.5 0.968821 0.0109927
0 0.5 -0.968821 0.0130719
0.0124865 0.5 -0.968821 0.0139747
0.0124865 0.5 0.968821 0.0117399
0.969689 0.5 -0.0375 0.00298758
0.969689 0.5 0.0375 0.00297922
0.574156 0.5 -0.7875 0.00806781
0.574156 0.5 0.7875 0.00765634
0 0.5 -0.975 0.0130656
0 0.5 0.975 0.0109944
0.624316 0.5 -0.75 0.00723784
0.624316 0.5 0.75 0.00688994
0.969689 0.5 -0.1125 0.00302051
0.96969 0.5 0.1125 0.00299596
0.523432 0.5 -0.825 0.00915521
0.523432 0.5 0.825 0.0086076
0.67013 0.5 0.7125 0.00615769
0.67013 0.5 -0.7125 0.00644931
0 0.5 -0.981179 0.0130566
0 0.5 0.981179 0.0109958
0.467897 0.5 0.8625 0.00958912
0.467897 0.5 -0.8625 0.010289
0.0124865 0.5 -0.981179 0.0139571
0.0124865 0.5 0.981179 0.0117386
0.872064 0.5 -0.45 0.00386713
0.872064 0.5 0.45 0.00376907
0.715434 0.5 -0.675 0.00583957
0.715434 0.5 0.675 0.0055852
0.939201 0.5 -0.3 0.0032782
0.939201 0.5 0.3 0.00323025
0.151149 0.5 0.975 0.0145047
0.151149 0.5 -0.975 0.0172798
0.969689 0.5 -0.1875 0.00305683
0.969689 0.5 0.1875 0.0030315
0.756813 0.5 -0.6375 0.00526196
0.756813 0.5 0.6375 0.00504161
0.411736 0.5 -0.9 0.0117167
0.411736 0.5 0.9 0.0106783
0.90582 0.5 -0.4125 0.0035583
0.90582 0.5 0.4125 0.0034719
0.995005 0.5 0.0749309 0.00285128
0.797732 0.5 -0.6 0.00481109
0.797732 0.5 0.6 0.00461953
1.00005 0.5 -8.47123e-18 0.00281629
0.350249 0.5 -0.9375 0.0131626
0.350249 0.5 0.9375 0.0117675
1.00005 0.5 -0.0749309 0.00283518
0.969689 0.5 -0.2625 0.00311499
0.969689 0.5 0.2625 0.00308627
0.835106 0.5 -0.5625 0.00438261
0.835106 0.5 0.5625 0.00421946
1.00005 0.5 -0.149862 0.00286858
0.939201 0.5 -0.375 0.00338115
0.939201 0.5 0.375 0.00331276
1.00029 0.5 0.148988 0.00285
0.075776 0.5 -1.0125 0.0184458
0.075776 0.5 1.0125 0.0155148
0.288069 0.5 0.975 0.01267
0.288069 0.5 -0.975 0.014679
0.872064 0.5 -0.525 0.00403047
0.872064 0.5 0.525 0.00389469
1.00005 0.5 0.224793 0.0028899
1.00005 0.5 -0.224793 0.0029151
0.969689 0.5 0.3375 0.00315998
0.96969 0.5 -0.3375 0.00320761
1.0271 0.5 -0.0368226 0.00264539
1.0271 0.5 0.0368226 0.00263728
0.90582 0.5 0.4875 0.0035911
0.905821 0.5 -0.4875 0.00369684
1.0271 0.5 -0.110468 0.00267011
1.0271 0.5 0.110468 0.00264052
0.67013 0.5 0.7875 0.00640024
0.67013 0.5 -0.7875 0.00678262
0.624316 0.5 0.825 0.00714333
0.624316 0.5 -0.825 0.00759739
0.219993 0.5 -1.0125 0.0161235
0.219993 0.5 1.0125 0.0135493
0.574156 0.5 -0.8625 0.00845346
0.574156 0.5 0.8625 0.00791923
0.715434 0.5 -0.75 0.0061441
0.715434 0.5 0.75 0.00581009
0.756813 0.5 0.7125 0.00524795
0.756814 0.5 -0.7125 0.0055368
0.523432 0.5 -0.9 0.00955169
0.523432 0.5 0.9 0.00886076
0.939201 0.5 -0.45 0.00351645
0.939201 0.5 0.45 0.00341533
1.04168 0.5 0 0.00256142
1.0271 0.5 -0.184113 0.0027076
1.0271 0.5 0.184113 0.00268476
0 0.5 -1.04382 0.0129978
0 0.5 1.04382 0.0110628
0.0124865 0.5 -1.04382 0.0138983
0.0124865 0.5 1.04382 0.0118056
1.00005 0.5 -0.299723 0.00298795
1.00005 0.5 0.299723 0.00295237
1.04168 0.5 -0.0729162 0.00257724
1.04168 0.5 0.0729162 0.00256369
0.797732 0.5 -0.675 0.00505996
0.797732 0.5 0.675 0.00480631
0.467897 0.5 0.9375 0.00983136
0.467897 0.5 -0.9375 0.0106936
0 0.5 -1.05 0.0129935
0 0.5 1.05 0.0110753
0.835106 0.5 -0.6375 0.00460518
0.835106 0.5 0.6375 0.00438806
1.04168 0.5 -0.145832 0.00260604
1.04168 0.5 0.145832 0.00258499
0.969689 0.5 -0.4125 0.00331717
0.96969 0.5 0.4125 0.00324816
0 0.5 -1.05618 0.012992
0 0.5 1.05618 0.0110869
0.0124865 0.5 -1.05618 0.0138944
0.0124865 0.5 1.05618 0.0118381
1.05695 0.5 -0.0360764 0.00248625
1.05695 0.5 0.0360764 0.00247631
0.411736 0.5 -0.975 0.0120772
0.411736 0.5 0.975 0.0108722
0.872064 0.5 -0.6 0.0042288
0.872064 0.5 0.6 0.00404164
1.0271 0.5 -0.257759 0.0027599
1.0271 0.5 0.257759 0.00273362
0.151149 0.5 -1.05 0.017247
0.151149 0.5 1.05 0.0145637
1.05695 0.5 0.108229 0.00247175
1.05695 0.5 -0.108229 0.00250587
1.04168 0.5 -0.218749 0.00264713
1.04168 0.5 0.218749 0.00262096
0.90582 0.5 -0.5625 0.00386734
0.905821 0.5 0.5625 0.00371502
1.00005 0.5 -0.374654 0.0030895
1.00005 0.5 0.374654 0.00303195
0.350249 0.5 1.0125 0.0119087
0.350249 0.5 -1.0125 0.0134728
1.05695 0.5 -0.180382 0.00253917
1.05695 0.5 0.180382 0.00251311
1.07319 0.5 0.0709442 0.00241429
0.939201 0.5 -0.525 0.00368286
0.939201 0.5 0.525 0.00353302
1.0271 0.5 -0.331404 0.00284335
1.0271 0.5 0.331404 0.00280075
1.08112 0.5 3.23815e-17 0.0023848
1.04168 0.5 -0.291665 0.00270898
1.04168 0.5 0.291665 0.00267314
1.08112 0.5 -0.0709442 0.00239905
0.969689 0.5 -0.4875 0.0035007
0.96969 0.5 0.4875 0.00335779
1.05695 0.5 0.252535 0.00255147
1.05695 0.5 -0.252535 0.00258251
0.288069 0.5 -1.05 0.0148514
0.288069 0.5 1.05 0.0127537
0.075776 0.5 -1.0875 0.0184202
0.075776 0.5 1.0875 0.0157051
1.08112 0.5 -0.141888 0.00242241
1.08145 0.5 0.140165 0.0024071
0.715434 0.5 0.825 0.00605686
0.715434 0.5 -0.825 0.00648723
0.756813 0.5 0.7875 0.00547792
0.756814 0.5 -0.7875 0.00585135
0.67013 0.5 -0.8625 0.00715298
0.67013 0.5 0.8625 0.00666296
0.797732 0.5 -0.75 0.00534664
0.797732 0.5 0.75 0.00501473
0.624316 0.5 -0.9 0.00799347
0.624316 0.5 0.9 0.00741412
1.00005 0.5 -0.449585 0.00322954
1.00005 0.5 0.449585 0.00312983
0.835106 0.5 -0.7125 0.00486423
0.835106 0.5 0.7125 0.00457594
0.574156 0.5 -0.9375 0.00887427
0.574157 0.5 0.9375 0.00819686
1.10076 0.5 -0.0349809 0.00231954
1.10076 0.5 0.0349809 0.00230964
1.08112 0.5 -0.212832 0.00245685
1.08112 0.5 0.212832 0.00243368
0.872064 0.5 -0.675 0.00446413
0.872064 0.5 0.675 0.00421014
1.04168 0.5 -0.364581 0.00279926
1.04168 0.5 0.364581 0.00274141
1.0271 0.5 0.405049 0.00288385
1.0271 0.5 -0.405049 0.00295515
1.05695 0.5 -0.324688 0.00265296
1.05695 0.5 0.324688 0.00260586
1.10076 0.5 -0.104943 0.0023375
1.10076 0.5 0.104943 0.00232204
0.523432 0.5 0.975 0.00913106
0.523432 0.5 -0.975 0.00998065
0.90582 0.5 0.6375 0.00386371
0.905821 0.5 -0.6375 0.00407992
0.219992 0.5 1.0875 0.0136214
0.219992 0.5 -1.0875 0.0161565
1.11376 0.5 3.81639e-17 0.00227071
0.939201 0.5 0.6 0.00368286
0.939201 0.5 -0.6 0.00386362
1.10076 0.5 -0.174905 0.00236172
1.10076 0.5 0.174905 0.00234623
0.467897 0.5 -1.0125 0.011127
0.467897 0.5 1.0125 0.0100953
1.11376 0.5 -0.0693118 0.00228453
1.11376 0.5 0.0693118 0.00227216
1.08112 0.5 0.283777 0.00247761
1.08112 0.5 -0.283777 0.00251033
0 0.5 -1.11882 0.0129665
0 0.5 1.11882 0.0112122
0.0124865 0.5 -1.11882 0.013869
0.0124865 0.5 1.11882 0.0119633
0.969689 0.5 -0.5625 0.00367293
0.969689 0.5 0.5625 0.00347604
1.11376 0.5 0.138624 0.00229235
1.11376 0.5 -0.138624 0.00230462
0 0.5 -1.125 0.0129578
0 0.5 1.125 0.0112246
1.10076 0.5 0.244866 0.00238241
1.10076 0.5 -0.244866 0.00240095
0.411736 0.5 -1.05 0.0124703
0.411736 0.5 1.05 0.0110765
1.05695 0.5 -0.396841 0.00274859
1.05695 0.5 0.396841 0.00267441
1.00005 0.5 -0.524516 0.00338569
1.00005 0.5 0.524516 0.00324549
1.04168 0.5 -0.437497 0.00291683
1.04168 0.5 0.437497 0.00282625
0 0.5 -1.13118 0.0129552
0 0.5 1.13118 0.0112376
0.0124865 0.5 -1.13118 0.0138492
0.0124865 0.5 1.13118 0.0119959
1.11376 0.5 -0.207935 0.00233457
1.11376 0.5 0.207935 0.00232022
1.0271 0.5 -0.478694 0.0030961
1.0271 0.5 0.478694 0.00298684
0.151149 0.5 -1.125 0.0172591
0.151149 0.5 1.125 0.0147182
1.08112 0.5 -0.354722 0.00258825
1.08112 0.5 0.354722 0.00253615
1.13882 0.5 -0.0340295 0.00218802
1.13882 0.5 0.0340295 0.00217966
0.350249 0.5 -1.0875 0.0138157
0.350249 0.5 1.0875 0.0120394
1.13882 0.5 -0.102088 0.00220581
1.13882 0.5 0.102088 0.00218732
1.10076 0.5 -0.314829 0.0024661
1.10076 0.5 0.314829 0.00243343
0.756813 0.5 -0.8625 0.00620643
0.756814 0.5 0.8625 0.00573032
0.797732 0.5 -0.825 0.00567207
0.797732 0.5 0.825 0.00524616
1.11376 0.5 -0.277247 0.00238545
1.11376 0.5 0.277247 0.0023631
0.835106 0.5 0.7875 0.00478626
0.835106 0.5 -0.7875 0.0051632
0.715434 0.5 -0.9 0.00686812
0.715434 0.5 0.9 0.00632213
0.872064 0.5 -0.75 0.00473263
0.872064 0.5 0.75 0.00440192
1.13882 0.5 0.170147 0.00221505
1.13882 0.5 -0.170147 0.00222479
0.67013 0.5 -0.9375 0.0075612
0.67013 0.5 0.9375 0.00694281
0.905821 0.5 -0.7125 0.0043274
0.905821 0.5 0.7125 0.00403323
1.05695 0.5 0.468994 0.00275991
1.05695 0.5 -0.468994 0.00286681
0.939201 0.5 -0.675 0.00406701
0.939201 0.5 0.675 0.0038522
0.624316 0.5 0.975 0.00770168
0.624316 0.5 -0.975 0.00842779
1.04168 0.5 -0.510414 0.0030386
1.04168 0.5 0.510414 0.0029304
0.969689 0.5 -0.6375 0.00384136
0.96969 0.5 0.6375 0.00368361
0.288069 0.5 -1.125 0.0150685
0.288069 0.5 1.125 0.0128771
1.16179 0.5 5.78241e-19 0.00209938
1.08112 0.5 0.425666 0.00260925
1.08112 0.5 -0.425666 0.00268755
1.13882 0.5 -0.238206 0.00226002
1.13882 0.5 0.238206 0.00224981
1.16179 0.5 0.0669104 0.00208927
1.16179 0.5 -0.0669104 0.00211231
0.574156 0.5 -1.0125 0.00933026
0.574156 0.5 1.0125 0.00849231
0.075776 0.5 -1.1625 0.0183706
0.075776 0.5 1.1625 0.0159091
1.00005 0.5 -0.599447 0.00355106
1.00005 0.5 0.599447 0.00340052
1.10076 0.5 0.384791 0.0024985
1.10076 0.5 -0.384791 0.00255196
1.0271 0.5 -0.55234 0.00322446
1.0271 0.5 0.55234 0.00310997
1.11376 0.5 -0.346559 0.00245911
1.11376 0.5 0.346559 0.00242014
1.16179 0.5 -0.133821 0.00212877
1.16179 0.5 0.133821 0.0021166
0.523432 0.5 -1.05 0.0104487
0.523432 0.5 1.05 0.00941846
1.17463 0.5 -0.0331343 0.00205822
1.17463 0.5 0.0331343 0.00205071
1.17463 0.5 -0.0994029 0.00207579
1.17463 0.5 0.0994029 0.00206227
1.16179 0.5 -0.200731 0.00215196
1.16179 0.5 0.200731 0.00214533
1.13882 0.5 -0.306265 0.00232106
1.13882 0.5 0.306265 0.00229781
0.219992 0.5 -1.1625 0.0162398
0.219992 0.5 1.1625 0.013779
0.467897 0.5 -1.0875 0.011605
0.467897 0.5 1.0875 0.0103683
1.17463 0.5 0.165672 0.00208344
1.17463 0.5 -0.165672 0.00208945
1.05695 0.5 -0.541147 0.00296905
1.05695 0.5 0.541147 0.00286556
1.18772 0.5 -5.78241e-19 0.00201011
1.11376 0.5 -0.41587 0.00255085
1.11376 0.5 0.41587 0.00249098
1.18772 0.5 -0.065614 0.0020221
1.18772 0.5 0.065614 0.00201305
1.08112 0.5 -0.49661 0.00278793
1.08112 0.5 0.49661 0.00269968
1.10076 0.5 -0.454752 0.00265563
1.10076 0.5 0.454752 0.00257775
1.18534 0.5 0.118202 0.0020281
1.16179 0.5 -0.267642 0.00219612
1.16179 0.5 0.267642 0.00218386
0 0.5 -1.19382 0.0129335
0 0.5 1.19382 0.0113962
0.0124865 0.5 1.19382 0.0121545
0.0124865 0.5 -1.19382 0.0138276
1.04168 0.5 -0.58333 0.00317876
1.04168 0.5 0.58333 0.00305867
1.18772 0.5 -0.131228 0.00203682
1.17463 0.5 -0.23194 0.00211853
1.17463 0.5 0.23194 0.0021148
0.411736 0.5 -1.125 0.0129046
0.411736 0.5 1.125 0.0112587
1.13882 0.5 -0.374324 0.00239949
1.13882 0.5 0.374324 0.00235943
0 0.5 -1.2 0.0129302
0 0.5 1.2 0.0114139
0.905821 0.5 0.7875 0.00423315
0.905821 0.5 -0.7875 0.00459667
0.872064 0.5 -0.825 0.00503827
0.872064 0.5 0.825 0.00462507
0.835106 0.5 0.8625 0.00502009
0.835106 0.5 -0.8625 0.00549707
0.939201 0.5 -0.75 0.00430512
0.939201 0.5 0.75 0.00400932
0.797732 0.5 -0.9 0.00603646
0.797732 0.5 0.9 0.00549793
1.0271 0.5 0.625985 0.00326654
1.0271 0.5 -0.625985 0.0034049
0.969689 0.5 0.7125 0.00383448
0.96969 0.5 -0.7125 0.00402824
1.18772 0.5 -0.196842 0.00205655
1.18772 0.5 0.196842 0.00205337
0.756814 0.5 -0.9375 0.00659711
0.756814 0.5 0.9375 0.00599698
0 0.5 1.20618 0.011432
0 0.5 -1.20618 0.0129259
1.00005 0.5 -0.674378 0.00374535
1.00005 0.5 0.674378 0.00356226
0.0124865 0.5 1.20618 0.012202
0.0124865 0.5 -1.20618 0.013811
1.16179 0.5 -0.334552 0.00226111
1.16179 0.5 0.334552 0.00223501
0.715434 0.5 0.975 0.00660441
0.715434 0.5 -0.975 0.00728779
0.151149 0.5 -1.2 0.0172992
0.151149 0.5 1.2 0.0149467
1.20942 0.5 0.0322645 0.00193028
1.20942 0.5 -0.0322645 0.0019374
1.17463 0.5 -0.298209 0.00217325
1.17463 0.5 0.298209 0.00215765
1.20942 0.5 -0.0967935 0.00195348
1.20942 0.5 0.0967935 0.00194224
0.350249 0.5 -1.1625 0.0142047
0.350249 0.5 1.1625 0.0121711
0.67013 0.5 1.0125 0.00723999
0.67013 0.5 -1.0125 0.00801386
1.11376 0.5 0.485183 0.00257767
1.11376 0.5 -0.485183 0.00264483
1.18772 0.5 0.262456 0.00208901
1.18772 0.5 -0.262456 0.0020961
1.10076 0.5 -0.524714 0.00274156
1.10076 0.5 0.524714 0.0026755
1.20942 0.5 -0.161322 0.0019639
1.20942 0.5 0.161322 0.00196125
1.08112 0.5 -0.567554 0.00290676
1.08112 0.5 0.567554 0.00280817
0.624316 0.5 -1.05 0.00890554
0.624316 0.5 1.05 0.00800734
1.13882 0.5 -0.442383 0.00249192
1.13882 0.5 0.442383 0.00243409
1.05695 0.5 0.6133 0.00299304
1.05695 0.5 -0.6133 0.00312527
1.16179 0.5 -0.401463 0.00233998
1.16179 0.5 0.401463 0.00229884
0.574156 0.5 -1.0875 0.00983379
0.574156 0.5 1.0875 0.0088074
1.17463 0.5 0.364477 0.00221327
1.17463 0.5 -0.364477 0.00224311
1.20942 0.5 -0.225851 0.00198777
1.20942 0.5 0.225851 0.00198949
1.23036 0.5 -1.32995e-17 0.00186512
1.2294 0.5 0.0634819 0.00187105
1.04168 0.5 -0.656246 0.00336642
1.04168 0.5 0.656246 0.00320007
1.23036 0.5 -0.0634819 0.00187543
1.18772 0.5 0.32807 0.00213629
1.18772 0.5 -0.32807 0.00215538
0.288069 0.5 -1.2 0.0153388
0.288069 0.5 1.2 0.0130788
1.23036 0.5 -0.126964 0.00188746
1.23036 0.5 0.126964 0.00188221
0.075776 0.5 -1.2375 0.0182991
0.075776 0.5 1.2375 0.0162013
0.523432 0.5 -1.125 0.0109596
0.523432 0.5 1.125 0.00968278
1.0271 0.5 -0.69963 0.00362398
1.0271 0.5 0.69963 0.00340026
1.24274 0.5 0.0314313 0.00182369
1.24274 0.5 -0.0314313 0.00182802
1.20942 0.5 0.29038 0.00202776
1.20942 0.5 -0.29038 0.00203529
1.11376 0.5 -0.554494 0.0027543
1.11376 0.5 0.554494 0.00267923
1.23036 0.5 -0.190445 0.00190236
1.23036 0.5 0.190445 0.00190471
1.24274 0.5 -0.0942942 0.00184308
1.24274 0.5 0.0942942 0.00183425
1.13882 0.5 0.510442 0.0025252
1.13882 0.5 -0.510442 0.00258216
0.969689 0.5 -0.7875 0.00427838
0.969689 0.5 0.7875 0.00394448
1.00005 0.5 -0.749309 0.00397863
1.00005 0.5 0.749309 0.00370372
0.939201 0.5 -0.825 0.00458413
0.939201 0.5 0.825 0.00419871
0.90582 0.5 0.8625 0.00448156
0.90582 0.5 -0.8625 0.00491792
1.17463 0.5 -0.430746 0.00232409
1.17463 0.5 0.430746 0.00228088
1.10076 0.5 -0.594676 0.0028823
1.10076 0.5 0.594676 0.00278679
1.18772 0.5 -0.393684 0.00222668
1.18772 0.5 0.393684 0.00219563
1.24274 0.5 -0.157157 0.00185101
1.24274 0.5 0.157157 0.0018521
1.16179 0.5 -0.468373 0.00242841
1.16179 0.5 0.468373 0.0023768
0.467897 0.5 -1.1625 0.0121241
0.467897 0.5 1.1625 0.0105554
0.872064 0.5 -0.9 0.00538609
0.872064 0.5 0.9 0.00486979
1.25401 0.5 2.08167e-17 0.00179395
0.835106 0.5 0.9375 0.00527492
0.835106 0.5 -0.9375 0.00587568
1.25401 0.5 -0.0622994 0.00180332
1.25401 0.5 0.0622994 0.00179686
1.08112 0.5 -0.638498 0.00306867
1.08112 0.5 0.638498 0.00293669
1.23036 0.5 -0.253927 0.00193518
1.23036 0.5 0.253927 0.00193607
0.219992 0.5 1.2375 0.0140415
0.219992 0.5 -1.2375 0.0164222
1.25309 0.5 0.121964 0.00181086
1.05695 0.5 0.685452 0.00313068
1.05695 0.5 -0.685452 0.00331811
0.797732 0.5 0.975 0.00576922
0.797732 0.5 -0.975 0.00643945
1.25401 0.5 -0.124599 0.00181431
1.20942 0.5 -0.354909 0.00209634
1.20942 0.5 0.354909 0.00207762
1.24274 0.5 -0.220019 0.00187024
1.24274 0.5 0.220019 0.00187832
0.756814 0.5 -1.0125 0.00702519
0.756813 0.5 1.0125 0.00628296
1.25401 0.5 -0.186898 0.00182687
1.25401 0.5 0.186898 0.00183223
0.411736 0.5 -1.2 0.0133735
0.411736 0.5 1.2 0.0114776
0 0.5 -1.26882 0.0129631
0 0.5 1.26882 0.0116428
0.0124865 0.5 1.26882 0.0124129
0.0124865 0.5 -1.26882 0.0138482
0.715434 0.5 -1.05 0.00775709
0.715434 0.5 1.05 0.00690623
1.23036 0.5 -0.31741 0.00198552
1.23036 0.5 0.31741 0.00197735
1.04168 0.5 -0.729162 0.0035901
1.04168 0.5 0.729162 0.00333758
1.18772 0.5 -0.459298 0.00231234
1.18772 0.5 0.459298 0.00226837
1.24274 0.5 -0.282882 0.00191275
1.24274 0.5 0.282882 0.00191309
0 0.5 -1.275 0.0129767
0 0.5 1.275 0.0116658
1.27472 0.5 -0.0306319 0.00172706
1.27472 0.5 0.0306319 0.00172411
1.17463 0.5 0.497015 0.00236407
1.17463 0.5 -0.497015 0.00241554
1.11376 0.5 -0.623806 0.0029019
1.11376 0.5 0.623806 0.00280165
1.13882 0.5 -0.578501 0.00270078
1.13882 0.5 0.578501 0.00262676
0.67013 0.5 -1.0875 0.00851283
0.67013 0.5 1.0875 0.00755485
1.27472 0.5 -0.0918959 0.00174017
1.27472 0.5 0.0918959 0.0017462
1.25401 0.5 -0.249197 0.00185633
1.25401 0.5 0.249197 0.00186192
1.16179 0.5 -0.535284 0.0025253
1.16179 0.5 0.535284 0.00246709
1.20942 0.5 -0.419438 0.00216437
1.20942 0.5 0.419438 0.00213887
0 0.5 -1.28118 0.0129883
0 0.5 1.28118 0.0116892
0.0124865 0.5 1.28118 0.0124759
0.0124865 0.5 -1.28118 0.0138877
1.27472 0.5 0.15316 0.00174995
1.27472 0.5 -0.15316 0.00174701
0.151149 0.5 -1.275 0.0174428
0.151149 0.5 1.275 0.0152584