# nutMean  POINT_DATA 91129
# x  y  z  nutMean
0 0 0 4.97881e-06
0 0.00368111 0 1.76233e-05
0 0.00749587 0 6.63741e-05
0 0.0114491 0 0.000247246
0 0.0155459 0 0.000649763
0 0.0197915 0 0.00160504
0 0.0241911 0 0.00249744
0 0.0287506 0 0.00297319
0 0.0334755 0 0.00344651
0 0.038372 0 0.00377407
0 0.0434463 0 0.0040045
0 0.0487048 0 0.00418003
0 0.0541543 0 0.00432638
0 0.0598016 0 0.00445862
0 0.0656539 0 0.00458624
0 0.0717187 0 0.00471682
0.075776 0.00184055 0 8.45306e-06
0.075776 0.00558849 0 1.26522e-05
0.075776 0.00947248 -3.46945e-18 5.96103e-05
0.075776 0.0134975 -3.46945e-18 0.000275796
0.075776 0.0176687 3.46945e-18 0.000779162
0 0.0780037 0 0.00485369
0.075776 0.0219913 3.46945e-18 0.00157123
0.075776 0.0264709 3.46945e-18 0.00266608
0.075776 0.031113 -3.46945e-18 0.00404603
0.075776 0.0359237 -3.46945e-18 0.00566841
0 0.0845169 0 0.00499511
0.075776 0.0409092 0 0.00747951
0.075776 0.0460755 -3.46945e-18 0.0094205
0 0.0912666 0 0.00513946
0.075776 0.0514296 -3.46945e-18 0.0114323
0.075776 0.0569779 0 0.0134569
0 0.0982613 0 0.00528673
0.075776 0.0627278 0 0.0154388
0.075776 0.0686863 0 0.0170314
0 0.10551 0 0.00543663
0.075776 0.0748612 3.46945e-18 0.0177513
0.075776 0.0812603 -3.46945e-18 0.0185116
0 0.113022 0 0.00558838
0.075776 0.0878918 3.46945e-18 0.0193545
0 0.120806 0 0.00574105
0.075776 0.0947639 3.46945e-18 0.020294
0.075776 0.101886 -3.46945e-18 0.021349
0 0.128874 0 0.00589484
0.075776 0.109266 3.46945e-18 0.022555
0 0.137234 0 0.00605967
0.075776 0.116914 3.46945e-18 0.0239611
0 0.145897 0 0.00625425
0.075776 0.12484 0 0.0256309
0.151552 0 0 0
0.151552 0.00368111 0 7.00117e-06
0.151552 0.00749587 0 2.42577e-05
0.151552 0.0114491 0 0.000104953
0.151552 0.0155459 0 0.000324528
0.151552 0.0197915 0 0.000733591
0.075776 0.133054 0 0.0276281
0.151552 0.0241911 0 0.00135092
0.151552 0.0287506 0 0.00218152
0 0.154876 0 0.00648423
0.151552 0.0334755 0 0.00321338
0.151552 0.038372 0 0.00442421
0.151552 0.0434463 0 0.00578605
0.151552 0.0487048 0 0.00726814
0.075776 0.141566 0 0.0294296
0.151552 0.0541543 0 0.00883829
0.151552 0.0598016 0 0.0104641
0 0.16418 0 0.00673836
0.151552 0.0656539 0 0.0120432
0.151552 0.0717187 0 0.0133699
0.075776 0.150387 0 0.0305681
0.151552 0.0780037 0 0.0145391
0.151552 0.0845169 0 0.0157709
0 0.173822 0 0.00700892
0.075776 0.159528 0 0.031276
0.151552 0.0912666 0 0.0170674
0.151552 0.0982613 0 0.018423
0 0.183814 0 0.00729498
0.151552 0.10551 0 0.0198371
0.075776 0.169001 3.46945e-18 0.0314987
0.151552 0.113022 0 0.0213168
0.151552 0.120806 0 0.0228761
0 0.194169 0 0.0075945
0.075776 0.178818 3.46945e-18 0.0312226
0.151552 0.128874 0 0.0245351
0.075776 0.188992 3.46945e-18 0.0304158
0.151552 0.137234 0 0.0261708
0 0.2049 0 0.00790468
0.151552 0.145897 0 0.0275247
0.075776 0.199535 0 0.0282965
0 0.21602 0 0.00823446
0.151552 0.154876 0 0.0285266
0.219992 0.00184055 0 2.27763e-06
0.219992 0.00558849 0 5.16815e-06
0.219992 0.00947248 -3.46945e-18 2.14274e-05
0.219992 0.0134975 3.46945e-18 7.26327e-05
0.219992 0.0176687 0 0.000201746
0.219992 0.0219913 0 0.000450162
0.219993 0.0264709 -3.46945e-18 0.000834308
0.219992 0.031113 -3.46945e-18 0.00136031
0.219992 0.0359238 3.46945e-18 0.00203158
0.151552 0.16418 0 0.0292255
0.075776 0.21046 0 0.0261903
0.219992 0.0409092 3.46945e-18 0.00284795
0.219992 0.0460755 0 0.00380593
0.219993 0.0514296 -3.46945e-18 0.0048995
0.219992 0.0569779 0 0.00611899
0 0.227544 0 0.00863967
0.219992 0.0627277 3.46945e-18 0.00745397
0.219992 0.0686863 0 0.00889305
0.151552 0.173822 0 0.0296187
0.219992 0.0748612 3.46945e-18 0.010422
0.075776 0.221782 0 0.0244434
0.219992 0.0812603 3.46945e-18 0.0120239
0.219992 0.0878917 -3.46945e-18 0.0136798
0.151552 0.183814 0 0.0296983
7.47806e-17 0.239487 0 0.00912896
0.219992 0.0947639 3.46945e-18 0.015365
0.219993 0.101886 3.46945e-18 0.0170528
0.075776 0.233516 0 0.0235594
0.219993 0.109266 0 0.0187167
0.151552 0.194169 0 0.0292263
0.219993 0.116914 0 0.0203329
0 0.251863 0 0.00966153
0.219993 0.12484 0 0.0218745
0.151552 0.2049 0 0.0283144
0.075776 0.245675 0 0.022994
0.219992 0.133054 3.46945e-18 0.0233285
0.219992 0.141565 0 0.0246593
0.151552 0.21602 0 0.0273991
0 0.264688 0 0.0102342
0.219992 0.150387 3.46945e-18 0.0258218
0.075776 0.258275 3.46945e-18 0.0226204
0.219992 0.159528 -3.46945e-18 0.026808
0.151552 0.227544 0 0.0266977
0.219992 0.169001 3.46945e-18 0.0276508
0 0.27798 0 0.0108486
0.075776 0.271334 3.46945e-18 0.0224301
0.151552 0.239487 3.70071e-18 0.0262017
0.219992 0.178818 3.46945e-18 0.0283698
0.288433 0 0 0
0.288433 0.00368111 0 2.92603e-06
0.288433 0.00749587 0 1.13718e-05
0.288433 0.0114491 0 3.79002e-05
0.288433 0.0155459 3.70071e-18 0.000104529
0.288433 0.0197915 0 0.000246715
0.288433 0.0241911 3.70071e-18 0.000490409
0.288433 0.0287506 0 0.000847564
0.219992 0.188991 0 0.0289567
0.288433 0.0334755 0 0.00132645
0.288433 0.038372 0 0.00192989
0.288433 0.0434463 0 0.00265806
7.47806e-17 0.291753 0 0.0115049
0.288433 0.0487048 0 0.00350887
0.288433 0.0541543 0 0.00447786
0.151552 0.251863 0 0.0257553
0.288433 0.0598016 3.70071e-18 0.00555845
0.075776 0.284866 0 0.0224005
0.288433 0.0656539 3.70071e-18 0.00674217
0.219992 0.199534 0 0.0292558
0.288433 0.0717187 0 0.00801813
0.288433 0.0780037 0 0.00937192
0.288433 0.0845169 0 0.0107853
0.288433 0.0912666 0 0.0121639
0.219992 0.21046 -3.46945e-18 0.0293506
0.288433 0.0982613 0 0.0132356
0.151552 0.264688 3.70071e-18 0.0253335
0 0.306027 0 0.0122177
0.288433 0.10551 0 0.014095
0.075776 0.29889 3.46945e-18 0.022507
0.288433 0.113022 0 0.0150205
0.219993 0.221782 0 0.0292928
0.288433 0.120806 0 0.0159428
0.288433 0.128874 0 0.0167736
0.151552 0.27798 0 0.0250335
0.288433 0.137234 0 0.0174974
0 0.320819 0 0.0131093
0.219992 0.233515 -3.46945e-18 0.0290822
0.075776 0.313423 -3.46945e-18 0.022803
0.288433 0.145897 0 0.0181405
0.288433 0.154876 0 0.0187172
0.151552 0.291753 0 0.0248345
0.219993 0.245675 0 0.0287232
0.288433 0.16418 0 0.0192263
0 0.336148 0 0.014508
0.288433 0.173822 0 0.0196739
0.075776 0.328484 -3.46945e-18 0.0238916
0.219993 0.258275 -3.46945e-18 0.0282323
0.151552 0.306027 0 0.0246253
0.288433 0.183814 0 0.0200587
0.288433 0.194169 0 0.0203394
0.219992 0.271334 3.46945e-18 0.0276216
0.350249 0.00184056 -3.46945e-18 8.73101e-07
0.350249 0.00558849 0 3.50245e-06
0.350249 0.00947248 3.46945e-18 1.56727e-05
0.350249 0.0134975 0 4.32112e-05
0.350249 0.0176687 0 0.000105328
0.350249 0.0219913 0 0.000241277
0.350249 0.0264708 3.46945e-18 0.000458211
0.350249 0.031113 0 0.000774137
0 0.352034 0 0.0157708
0.350249 0.0359238 0 0.00119409
0.075776 0.344091 0 0.0269633
0.350249 0.0409091 0 0.00172088
0.350249 0.0460756 3.46945e-18 0.00235577
0.288433 0.2049 0 0.0204978
0.350249 0.0514296 0 0.00309827
0.151552 0.320819 0 0.0245755
0.350249 0.0569779 0 0.00394624
0.350249 0.0627277 3.46945e-18 0.00489503
0.350249 0.0686863 3.46945e-18 0.00593692
0.350249 0.0748612 3.46945e-18 0.00706138
0.350249 0.0812603 0 0.00825231
0.219992 0.284867 0 0.0272815
0.288433 0.21602 0 0.0205658
0.350249 0.0878917 0 0.00948881
0.350249 0.094764 0 0.0104682
0.350249 0.101886 0 0.0104929
0.350249 0.109266 0 0.0106737
0.288433 0.227544 0 0.0205546
0.075776 0.360265 3.46945e-18 0.0270693
0 0.368496 0 0.0160389
0.151552 0.336148 0 0.025159
0.350249 0.116914 3.46945e-18 0.0110196
0.219992 0.29889 0 0.026785
0.370854 0.0241911 1.54074e-33 0.000357015
0.350249 0.12484 0 0.0113014
0.350249 0.133054 0 0.0114448
0.288433 0.239487 -9.25154e-19 0.0204633
0.350249 0.141566 3.46945e-18 0.0115095
0.350249 0.150387 3.46945e-18 0.0116123
0.288433 0.251863 0 0.0202953
0.219992 0.313423 0 0.0261053
0.151552 0.352034 0 0.0254931
0.075776 0.377027 0 0.0252157
0.350249 0.159528 0 0.0117404
0 0.385557 0 0.015536
0.350249 0.169001 0 0.0118788
0.288433 0.264688 0 0.0200543
0.350249 0.178818 0 0.0120175
0.219992 0.328484 0 0.0253148
0.350249 0.188992 0 0.0121511
0.151552 0.368496 0 0.0246035
0.288433 0.27798 3.70071e-18 0.0198344
0.075776 0.394397 0 0.0228322
0.350249 0.199535 0 0.0122774
7.47806e-17 0.403236 0 0.0150597
0.219992 0.344091 0 0.0245074
0.350249 0.21046 -3.46945e-18 0.0123959
0.288433 0.291753 0 0.0196272
0.412065 9.08189e-19 3.08149e-33 2.38536e-22
0.412065 0.00368111 -2.31298e-18 2.1059e-06
0.412065 0.00749587 -2.31298e-18 9.656e-06
0.412065 0.0114491 -2.31298e-18 2.7877e-05
0.412065 0.0155459 -2.31298e-18 6.54967e-05
0.412065 0.0197915 0 0.000145312
0.412065 0.0241911 -3.08149e-33 0.000290318
0.412065 0.0264709 0 0.000401972
0.412065 0.0287506 -2.31298e-18 0.000513626
0.412065 0.0334755 -2.31298e-18 0.000825152
0.412065 0.038372 -2.31298e-18 0.00123111
0.151552 0.385557 0 0.023059
0.412065 0.0434463 0 0.00173377
0.350249 0.221782 0 0.0125048
0.412065 0.0487048 0 0.00233373
0.412065 0.0541543 -3.08149e-33 0.00302992
0.412065 0.0569779 0 0.00342451
0.412065 0.0598016 -2.31298e-18 0.0038191
0.412065 0.0656539 -2.31298e-18 0.00469521
0.412065 0.0717187 -2.31298e-18 0.00564886
0.075776 0.412396 -3.46945e-18 0.0220844
0.412065 0.0780037 -2.31298e-18 0.00666615
0.288433 0.306027 0 0.0193251
0.412065 0.0845169 -2.31298e-18 0.00765193
0.350249 0.233516 3.46945e-18 0.0126008
0 0.421557 0 0.0150273
0.412065 0.0912666 -2.31298e-18 0.00836761
0.219992 0.360265 3.46945e-18 0.0236646
0.412065 0.0982613 0 0.00864062
0.412065 0.10551 0 0.00872299
0.412065 0.113022 -2.31298e-18 0.00888682
0.350249 0.245675 0 0.0126807
0.412065 0.120806 0 0.00907486
0.151552 0.403236 0 0.0217637
0.288433 0.320819 0 0.0189406
0.412065 0.128874 -2.31298e-18 0.00921216
0.412065 0.137234 0 0.00929586
0.350249 0.258275 -3.46945e-18 0.0127403
0.219992 0.377026 0 0.0226984
0.412065 0.145897 -2.31298e-18 0.00937043
0.075776 0.431051 0 0.0220098
0.412065 0.154876 -2.31298e-18 0.00946065
0 0.440544 0 0.0151476
0.288433 0.336148 0 0.0185157
0.350249 0.271334 0 0.0127724
0.412065 0.16418 -2.31298e-18 0.00955892
0.412065 0.173822 -2.31298e-18 0.00965917
0.151552 0.421557 0 0.0210684
0.412065 0.183814 -2.31298e-18 0.00975755
0.350249 0.284867 3.46945e-18 0.0127737
0.219992 0.394397 0 0.021636
0.288433 0.352034 3.70071e-18 0.0180697
0.412065 0.194169 0 0.00985215
0.075776 0.450382 0 0.0220385
0.412065 0.2049 -2.31298e-18 0.00994222
0 0.46022 0 0.0152822
0.350249 0.29889 3.46945e-18 0.0127487
0.412065 0.21602 0 0.0100271
0.151552 0.440544 0 0.0206365
0.219993 0.412396 3.46945e-18 0.0206074
0.467897 0.00184056 -3.46945e-18 6.04702e-07
0.467897 0.00558849 0 3.45482e-06
0.288433 0.368496 0 0.0175751
0.467897 0.00947248 0 1.59848e-05
0.467897 0.0134975 0 3.6858e-05
0.467897 0.0176687 3.46945e-18 7.78137e-05
0.467897 0.0219913 -3.46945e-18 0.000160736
0.467897 0.0264709 3.46945e-18 0.000309338
0.467897 0.0311131 3.46945e-18 0.000527123
0.467897 0.0359238 -3.46945e-18 0.000827429
0.467897 0.038372 0 0.00106235
0.467897 0.0409092 3.46945e-18 0.00121362
0.350249 0.313423 0 0.0126992
0.467897 0.0460755 0 0.00168727
0.467897 0.0514296 3.46945e-18 0.00224845
0.412065 0.227544 -2.31298e-18 0.0101052
0.467897 0.0569779 0 0.00289536
0.467897 0.0627277 -3.46945e-18 0.00362361
0.467897 0.0686863 3.46945e-18 0.00442575
0.467897 0.0748612 0 0.00528988
0.467897 0.0812603 0 0.00619906
0.467897 0.0878918 3.46945e-18 0.00683728
0.075776 0.470415 3.46945e-18 0.0221127
0.412065 0.239487 -2.31298e-18 0.0101749
0.467897 0.0947639 -3.46945e-18 0.0069004
0.467897 0.101886 3.46945e-18 0.00695705
0.350249 0.328483 0 0.012629
0.467897 0.109266 0 0.00702727
0 0.48061 0 0.0154119
0.288433 0.385557 0 0.017013
0.467897 0.116914 0 0.00709943
0.412065 0.251863 -2.31298e-18 0.0102343
0.219992 0.431051 0 0.0197205
0.467897 0.12484 0 0.00716912
0.151552 0.46022 0 0.0203127
0.467897 0.133054 3.46945e-18 0.00723383
0.467897 0.141566 3.46945e-18 0.00729855
0.412065 0.264688 -2.31298e-18 0.0102807
0.350249 0.344091 -3.46945e-18 0.0125424
0.467897 0.150387 3.46945e-18 0.00736579
0.467897 0.154876 0 0.00792721
0.467897 0.159528 3.46945e-18 0.00743203
0.288433 0.403236 0 0.0164203
0.075776 0.491175 0 0.0221866
0.412065 0.27798 -2.31298e-18 0.0103118
0.467897 0.169001 0 0.00749718
0.467897 0.178818 3.46945e-18 0.00756108
0.219992 0.450382 0 0.0189877
6.73026e-17 0.501741 3.70071e-18 0.0155006
0.350249 0.360265 0 0.0124396
0.151552 0.48061 0 0.0200525
0.467897 0.188991 0 0.00762356
0.412065 0.291753 0 0.0103279
0.467897 0.199535 0 0.00768441
0.288433 0.421557 0 0.0158598
0.467897 0.21046 0 0.00774338
0.412065 0.306027 0 0.0103295
0.350249 0.377027 0 0.0123125
0.467897 0.221782 3.46945e-18 0.00780015
0.075776 0.51269 0 0.0221593
0.219993 0.470415 3.46945e-18 0.0183794
0.467897 0.227544 0 0.00842895
0.412065 0.320819 -2.31298e-18 0.0103171
0.467897 0.233515 0 0.00785433
6.73026e-17 0.523639 3.70071e-18 0.0155233
0.523729 0 0 0
0.523729 0.00368111 0 1.9887e-06
0.523729 0.00749587 -2.31298e-18 1.02128e-05
0.523729 0.0114491 0 2.71478e-05
0.523729 0.0155459 0 5.51259e-05
0.523729 0.0197915 -2.31298e-18 0.000106822
0.151552 0.501741 0 0.0198015
0.523729 0.0241911 0 0.000205795
0.523729 0.0287506 0 0.00036497
0.523729 0.0334755 0 0.000590719
0.523729 0.038372 -3.08149e-33 0.000893586
0.523729 0.0434463 0 0.00127631
0.523729 0.0487048 0 0.00173966
0.523729 0.0541543 0 0.0022826
0.288433 0.440544 0 0.0153695
0.523729 0.0598016 0 0.00290186
0.350249 0.394397 -3.46945e-18 0.0121533
0.523729 0.0656539 0 0.00359115
0.467897 0.245675 0 0.00790554
0.523729 0.0717187 0 0.00434043
0.523729 0.0780037 0 0.00511843
0.523729 0.0845169 0 0.00568521
0.523729 0.0912666 0 0.0058963
0.412065 0.336148 0 0.0102918
0.523729 0.0982613 0 0.00596349
0.523729 0.10551 -2.31298e-18 0.00603086
0.467897 0.258275 -3.46945e-18 0.00795362
0.523729 0.113022 0 0.00609832
0.523729 0.120806 -3.08149e-33 0.00616278
0.219993 0.491176 0 0.017849
0.523729 0.12484 0 0.00619302
0.523729 0.128874 -2.31298e-18 0.00622325
0.075776 0.534986 0 0.0220493
0.467897 0.271334 3.46945e-18 0.0079989
0.350249 0.412396 -3.46945e-18 0.0119662
0.523729 0.137234 0 0.00628075
0.412065 0.352034 -2.31298e-18 0.0102542
0.288433 0.46022 0 0.0149533
0.523729 0.145897 0 0.00633756
0.151552 0.523639 0 0.019531
0.523729 0.154876 -3.08149e-33 0.00639376
0 0.546332 0 0.0154916
0.523729 0.159528 0 0.00642123
0.467897 0.284867 -3.46945e-18 0.00804252
0.523729 0.16418 -2.31298e-18 0.0064487
0.523729 0.173822 0 0.00650245
0.412065 0.368496 0 0.0102024
0.523729 0.183814 0 0.00655502
0.467897 0.29889 0 0.00808287
0.350249 0.431051 -3.46945e-18 0.0117684
0.219992 0.51269 0 0.01737
0.523729 0.194169 0 0.0066064
0.288433 0.48061 0 0.0145972
0.523729 0.2049 0 0.00665654
0.467897 0.313423 3.46945e-18 0.00811789
0.075776 0.558091 0 0.021882
0.412065 0.385557 0 0.0101321
0.523729 0.21602 -3.08149e-33 0.00670534
0.151552 0.546332 0 0.019249
0 0.569849 0 0.0154192
0.350249 0.450382 3.46945e-18 0.011578
0.523729 0.227544 -3.08149e-33 0.00675268
0.467897 0.328483 0 0.00814599
0.523729 0.231525 1.54074e-33 0.00676793
0.574156 0.00184056 0 4.62904e-07
0.574156 0.00558849 0 3.43784e-06
0.574157 0.00947248 0 1.79096e-05
0.574156 0.0134975 -3.46945e-18 3.7744e-05
0.574156 0.0176687 -3.46945e-18 6.83791e-05
0.574156 0.0219913 0 0.000121994
0.574156 0.0264708 -3.46945e-18 0.000234953
0.574156 0.031113 0 0.000395457
0.574156 0.0359238 -3.46945e-18 0.000624228
0.574157 0.0409092 0 0.00092572
0.523729 0.239487 3.70071e-18 0.00679843
0.574156 0.0460755 -3.46945e-18 0.00130149
0.574156 0.0514295 0 0.00175135
0.412065 0.403236 0 0.0100421
0.574157 0.0569779 0 0.00227317
0.574156 0.0627277 0 0.00286219
0.574156 0.0686863 0 0.00350988
0.219992 0.534986 0 0.0169342
0.288433 0.501741 0 0.0142835
0.574156 0.0748612 3.46945e-18 0.00420404
0.574156 0.0812603 0 0.00486277
0.467897 0.344091 0 0.00816594
0.574156 0.0878917 3.46945e-18 0.00495084
0.523729 0.251863 0 0.00684251
0.574157 0.0947639 0 0.00502401
0.574156 0.101886 0 0.00509885
0.574156 0.109266 0 0.00516606
0.574156 0.116914 0 0.00522678
0.412065 0.416977 -6.16298e-33 0.00996383
0.350249 0.470415 0 0.0114074
0.523729 0.264688 0 0.00688503
0.075776 0.582034 0 0.0216767
0.574156 0.12484 0 0.00528289
0.574156 0.133054 3.46945e-18 0.00533508
0.412065 0.421557 -2.31298e-18 0.00993774
0.151552 0.569849 0 0.0189661
0.467897 0.360265 -3.46945e-18 0.00817714
0.574157 0.141566 -3.46945e-18 0.00538436
0.523729 0.27798 0 0.0069264
0.574156 0.150386 3.46945e-18 0.00543151
0 0.594219 0 0.0153158
0.574156 0.159528 -3.46945e-18 0.00547704
0.574156 0.16418 0 0.00568183
0.288433 0.523639 1.2326e-32 0.0140022
0.574157 0.169001 0 0.00552124
0.523729 0.291753 0 0.00696637
0.219993 0.558091 3.46945e-18 0.0165405
0.467897 0.377026 0 0.00817935
0.574156 0.178818 3.46945e-18 0.00556433
0.412065 0.440544 -2.31298e-18 0.00982875
0.350249 0.491175 0 0.0112606
0.574156 0.188992 3.46945e-18 0.00560647
0.523729 0.306027 -3.08149e-33 0.00700373
0.574157 0.199535 0 0.00564781
0.574157 0.21046 0 0.00568842
0.075776 0.606847 0 0.021447
0.467897 0.394397 0 0.00817188
0.151552 0.594219 0 0.0186896
0.523729 0.320819 0 0.00703719
0.574157 0.221782 -3.46945e-18 0.00572839
0.412065 0.46022 3.08149e-33 0.00972478
0.288433 0.546332 0 0.013749
0 0.619475 0 0.0151893
0.574156 0.233515 3.46945e-18 0.00576782
0.350249 0.51269 3.46945e-18 0.0111341
0.219992 0.582034 3.46945e-18 0.0161892
0.523729 0.336148 0 0.00706565
0.467897 0.412396 0 0.00815404
0.574156 0.245675 0 0.00580681
0.624584 0 0 0
0.624584 0.00368111 0 1.93615e-06
0.624584 0.00749587 0 1.13157e-05
0.624584 0.0114491 0 2.94051e-05
0.624584 0.0155459 0 5.35202e-05
0.624584 0.0197915 0 9.05642e-05
0.624584 0.0241911 -2.31298e-18 0.000161046
0.624584 0.0287506 0 0.000281726
0.624584 0.0334755 0 0.000457027
0.624584 0.038372 0 0.000694779
0.624584 0.0434463 -2.31298e-18 0.00100123
0.624584 0.0487048 0 0.0013772
0.624584 0.0541543 0 0.00182135
0.624584 0.0598016 0 0.00233004
0.624584 0.0656539 0 0.0028964
0.624584 0.0717187 0 0.0035097
0.624584 0.0780037 0 0.00406622
0.574157 0.258276 3.46945e-18 0.00584549
0.624584 0.0845169 0 0.00434913
0.523729 0.352034 0 0.00708834
0.624584 0.0912666 0 0.00442943
0.624584 0.0982613 0 0.00450244
0.412065 0.48061 3.08149e-33 0.00963218
0.624584 0.10551 0 0.00457032
0.624584 0.113022 -2.31298e-18 0.0046312
0.574156 0.271334 0 0.005884
0.624584 0.120806 0 0.0046867
0.467897 0.431051 0 0.00812692
0.075776 0.632561 -3.46945e-18 0.0212021
0.624584 0.128874 0 0.00473795
0.151552 0.619475 0 0.0184234
0.288433 0.569849 0 0.0135228
0.350249 0.534985 0 0.0110238
0.624584 0.137234 -2.31298e-18 0.00478573
0.523729 0.368496 0 0.0071049
0.574156 0.284866 -3.46945e-18 0.00592235
0.624584 0.145897 0 0.00483081
0.467897 0.440544 0 0.00846701
0.624584 0.154876 0 0.00487375
0.219992 0.606847 -3.46945e-18 0.0158777
0 0.645647 0 0.0150455
0.624584 0.16418 -3.08149e-33 0.00491496
0.574156 0.29889 -3.46945e-18 0.00596006
0.624584 0.173822 0 0.00495476
0.412065 0.501741 1.54074e-33 0.00955279
0.467897 0.450382 -3.46945e-18 0.00809431
0.523729 0.385557 0 0.00711499
0.624584 0.183814 0 0.0049934
0.624584 0.194169 0 0.00503108
0.574156 0.313423 0 0.00599636
0.624584 0.2049 0 0.00506797
0.350249 0.558091 3.46945e-18 0.010927
0.288433 0.594219 0 0.0133225
0.624584 0.21602 0 0.00510419
0.523729 0.403236 0 0.00711818
0.574156 0.328483 -3.46945e-18 0.0060304
0.151552 0.645647 0 0.0181692
0.467897 0.470415 3.46945e-18 0.00806119
0.075776 0.659208 0 0.0209478
0.624584 0.227544 0 0.0051399
0.412065 0.523639 0 0.00948558
0.523729 0.41545 3.08149e-33 0.00711572
0.624584 0.239487 3.70071e-18 0.00517521
0.574156 0.344091 0 0.00606143
0.219992 0.632561 0 0.0156026
0.67013 0.00184055 0 3.64454e-07
0.67013 0.00558849 0 3.48124e-06
0.67013 0.00947248 0 2.03561e-05
0.67013 0.0134975 0 4.14185e-05
0.67013 0.0176687 -3.46945e-18 6.64842e-05
0.67013 0.0219913 0 0.000105967
0.67013 0.0264708 3.46945e-18 0.000183404
0.67013 0.0311131 0 0.00031719
0.67013 0.0359237 0 0.000497697
0.67013 0.0409092 -3.46945e-18 0.000741286
0.67013 0.0460755 0 0.00105019
0.67013 0.0514296 3.46945e-18 0.00142401
0.523729 0.421557 -2.31298e-18 0.00711449
0.67013 0.056978 0 0.00186022
0 0.67277 0 0.0148891
0.67013 0.0627277 0 0.00235362
0.624584 0.251863 0 0.00521025
0.67013 0.0686863 0 0.0028953
0.67013 0.0748612 3.46945e-18 0.00347203
0.67013 0.0812603 0 0.00378311
0.67013 0.0878917 0 0.00386786
0.67013 0.0947639 3.46945e-18 0.00394308
0.574156 0.360265 0 0.00608896
0.67013 0.101886 0 0.00401202
0.523729 0.431051 0 0.00710987
0.624584 0.264688 0 0.00524514
0.467897 0.491175 0 0.00803189
0.67013 0.109266 3.46945e-18 0.00407292
0.350249 0.582034 0 0.0108422
0.67013 0.116914 0 0.00412797
0.67013 0.12484 0 0.00417841
0.67013 0.133054 0 0.00422498
0.288433 0.619475 0 0.0131468
0.624584 0.27798 -3.08149e-33 0.00527993
0.412065 0.546332 1.54074e-33 0.00942906
0.523729 0.440544 -3.08149e-33 0.00710526
0.67013 0.141566 3.46945e-18 0.00426842
0.685312 0.0241911 -7.70372e-34 0.000143132
0.685312 0.0434463 -7.70372e-34 0.000878467
0.67013 0.150387 0 0.00430923
0.574156 0.377026 -3.46945e-18 0.00611281
0.67013 0.159528 0 0.00434788
0.624584 0.291753 0 0.00531446
0.151552 0.67277 0 0.0179274
0.075776 0.686823 0 0.0206885
0.67013 0.169001 0 0.00438476
0.67013 0.178818 0 0.00442022
0.467897 0.51269 0 0.00800877
0.685312 0.113022 -7.70372e-34 0.00403097
0.219992 0.659208 0 0.0153601
0.624584 0.306027 0 0.00534835
0.67013 0.188991 0 0.00445454
0.574156 0.394397 3.46945e-18 0.00613279
0.523729 0.46022 0 0.0070932
0.685312 0.137234 -7.70372e-34 0.00417709
0.67013 0.199535 -3.46945e-18 0.00448793
0.350249 0.606847 0 0.0107693
0 0.700877 0 0.0147239
0.624584 0.320819 0 0.00538103
0.67013 0.21046 0 0.00452059
0.412065 0.569849 -2.31298e-18 0.00938201
0.67013 0.221782 -3.46945e-18 0.00455271
0.574157 0.412396 0 0.00614866
0.288433 0.645647 0 0.0129939
0.624584 0.336148 -3.08149e-33 0.00541196
0.67013 0.233515 3.46945e-18 0.00458445
0.467897 0.534986 0 0.00799256
0.523729 0.48061 0 0.00708149
0.624584 0.344091 0 0.00542632
0.67013 0.245675 0 0.00461595
0.715676 4.54095e-19 0 5.40345e-23
0.715676 0.00368111 0 1.92281e-06
0.715676 0.00749587 0 1.26173e-05
0.715676 0.0114491 0 3.27791e-05
0.715676 0.0155459 0 5.56976e-05
0.715676 0.0197915 0 8.48216e-05
0.715676 0.0241911 0 0.000134176
0.715676 0.0287506 0 0.000227668
0.715676 0.0334755 0 0.000371409
0.715676 0.038372 0 0.000564563
0.624584 0.352034 -2.31298e-18 0.00544067
0.715676 0.0434463 0 0.000817083
0.151552 0.700877 0 0.0176981
0.715676 0.0487048 0 0.00113129
0.715676 0.0541543 0 0.00150582
0.574156 0.43105 0 0.00616037
0.715676 0.0598016 0 0.00193671
0.67013 0.258275 0 0.00464736
0.715676 0.0656539 0 0.0024169
0.715676 0.0717187 0 0.00293323
0.075776 0.715441 0 0.0204276
0.715676 0.0780037 0 0.00330848
0.715676 0.0845169 0 0.00346043
0.219992 0.686824 0 0.0151461
0.715676 0.0912666 0 0.00353975
0.715676 0.0982613 0 0.00361096
0.67013 0.271334 -3.46945e-18 0.00467872
0.350249 0.632561 -3.46945e-18 0.0107083
0.412065 0.594219 3.08149e-33 0.00934386
0.715676 0.10551 0 0.0036743
0.715676 0.113022 0 0.00373085
0.624584 0.368496 0 0.00546688
0.523729 0.501741 0 0.00707279
0.715676 0.120806 0 0.00378221
0.715676 0.128874 0 0.00382927
0.67013 0.284867 0 0.00471003
0.467897 0.558091 3.46945e-18 0.007983
0.715676 0.137234 0 0.00387277
0.574156 0.450382 0 0.00616863
0 0.730005 0 0.0145531
0.715676 0.145897 0 0.00391335
0.288433 0.67277 0 0.0128619
0.715676 0.154876 0 0.00395148
0.67013 0.29889 0 0.00474115
0.624584 0.385557 0 0.0054904
0.715676 0.16418 -9.25187e-19 0.00398757
0.715676 0.173822 0 0.00402199
0.715676 0.183814 0 0.00405503
0.67013 0.313423 0 0.00477185
0.523729 0.523639 0 0.00706868
0.715676 0.194169 0 0.00408695
0.574156 0.470415 3.46945e-18 0.00617498
0.624584 0.403236 0 0.00551106
0.743101 0.0241911 -7.70372e-34 0.000129274
0.412065 0.619475 3.08149e-33 0.0093146
0.715676 0.2049 0 0.00411796
0.151552 0.730005 0 0.0174811
0.67013 0.328484 3.46945e-18 0.00480179
0.350249 0.659208 0 0.0106594
0.467897 0.582034 0 0.00797961
0.715676 0.21602 0 0.00414825
0.219992 0.715441 0 0.0149573
0.075776 0.745097 -3.46945e-18 0.0201682
0.715676 0.227544 0 0.00417801
0.67013 0.344091 0 0.00483061
0.624584 0.421557 0 0.00552876
0.743101 0.128874 -7.70372e-34 0.00362563
0.715676 0.239487 3.70071e-18 0.00420738
0.574156 0.491175 0 0.00618151
0.756814 0.00184055 0 2.90153e-07
0.523729 0.546332 0 0.0070698
0.756813 0.00558849 0 3.55551e-06
0.756813 0.00947248 0 2.29981e-05
0.756814 0.0134975 -3.46945e-18 4.61312e-05
0.756814 0.0155459 0 5.75764e-05
0.756814 0.0176687 0 6.85606e-05
0.756814 0.0219913 0 9.84349e-05
0.756814 0.0264709 0 0.000150087
0.756814 0.031113 -3.46945e-18 0.000262552
0.756813 0.0359238 -3.46945e-18 0.000412273
0.288433 0.700877 0 0.012749
0.756814 0.0409092 -3.46945e-18 0.000613207
0.756813 0.0460755 3.46945e-18 0.000872536
0.756813 0.0514296 0 0.00119038
0.715676 0.251863 0 0.00423651
0.756813 0.0569779 0 0.00156405
0.756814 0.0627277 -3.46945e-18 0.00198819
0.756814 0.0686863 -3.46945e-18 0.00245393
0 0.76019 0 0.0143798
0.756814 0.0748612 0 0.00293992
0.67013 0.360265 3.46945e-18 0.00485805
0.756814 0.0812603 -3.46945e-18 0.0030748
0.756814 0.0878917 -3.46945e-18 0.00315706
0.756814 0.0947639 -3.46945e-18 0.00323217
0.715676 0.264688 0 0.00426547
0.756813 0.101886 0 0.00329784
0.624584 0.440544 0 0.00554369
0.756813 0.109266 3.46945e-18 0.00335585
0.756813 0.116914 3.46945e-18 0.00340827
0.412065 0.645647 0 0.00929443
0.467897 0.606847 0 0.00798222
0.756814 0.120806 0 0.00347749
0.756813 0.12484 0 0.00345593
0.715676 0.27798 0 0.0042943
0.756814 0.133054 -3.46945e-18 0.00349963
0.67013 0.377026 -3.46945e-18 0.0048839
0.756814 0.137234 0 0.00356651
0.574156 0.51269 0 0.00619014
0.756813 0.141566 3.46945e-18 0.0035401
0.685312 0.352034 -7.70372e-34 0.00476896
0.743101 0.2049 -7.70372e-34 0.00390852
0.350249 0.686824 0 0.0106225
0.756814 0.150387 0 0.00357784
0.756814 0.154876 0 0.00364342
0.715676 0.291753 0 0.004323
0.756814 0.159528 -3.46945e-18 0.00361331
0.523729 0.569849 0 0.00707619
0.72743 0.264688 0 0.0041732
0.756814 0.16418 0 0.00367849
0.151552 0.76019 0 0.0172766
0.756813 0.169001 3.46945e-18 0.00364686
0.624584 0.46022 0 0.00555656
0.219993 0.745097 0 0.0147911
0.67013 0.394396 0 0.004908
0.756813 0.178818 -3.46945e-18 0.00367881
0.715676 0.306027 0 0.00435143
0.075776 0.775831 0 0.019913
0.756813 0.188991 0 0.00370943
0.756814 0.199535 0 0.00373896
0.715676 0.320819 0 0.00437942
0.574156 0.534985 0 0.00620219
0.288433 0.730005 0 0.0126536
0.756813 0.21046 0 0.00376761
0.467897 0.632561 0 0.00799099
0.67013 0.412396 -3.46945e-18 0.00493027
0.624584 0.48061 -3.08149e-33 0.00556865
0.756814 0.221782 0 0.00379557
0.412065 0.67277 3.08149e-33 0.00928352
0.715676 0.336148 0 0.00440672
0 0.791472 0 0.0142068
0.756813 0.233516 3.46945e-18 0.003823
0.523729 0.594219 0 0.00708776
0.624584 0.487654 1.54074e-33 0.00557292
0.756814 0.245675 3.46945e-18 0.00385005
0.350249 0.715441 3.46945e-18 0.0105972
0.67013 0.43105 0 0.00495064
0.715676 0.352034 -9.25187e-19 0.0044331
0.797951 9.08189e-19 -3.08149e-33 8.80036e-23
0.797951 0.00368111 2.31298e-18 1.91885e-06
0.797951 0.00749587 2.31298e-18 1.39371e-05
0.797951 0.0114491 2.31298e-18 3.64041e-05
0.797951 0.0141803 7.70372e-34 5.17716e-05
0.797951 0.0155459 0 5.94553e-05
0.797951 0.0169611 7.70372e-34 6.75308e-05
0.797951 0.0197915 2.31298e-18 8.36817e-05
0.797951 0.0219913 0 0.000101577
0.797951 0.0241911 3.08149e-33 0.000119472
0.797951 0.0264709 0 0.000154347
0.797951 0.0287506 -3.08149e-33 0.000189222
0.797951 0.0334755 2.31298e-18 0.00030898
0.797951 0.038372 2.31298e-18 0.000473309
0.797951 0.0434463 2.31298e-18 0.00068488
0.797951 0.0487048 0 0.000952386
0.756813 0.258275 -3.46945e-18 0.00387681
0.797951 0.0541543 2.31298e-18 0.0012746
0.797951 0.0598016 2.31298e-18 0.00164746
0.797951 0.0656539 2.31298e-18 0.0020636
0.574156 0.55809 0 0.00621837
0.624584 0.501741 0 0.00558145
0.797951 0.0717187 2.31298e-18 0.00248757
0.797951 0.0780037 -3.08149e-33 0.0027543
0.797951 0.0845169 2.31298e-18 0.00285644
0.797951 0.0912666 -3.08149e-33 0.00293562
0.797951 0.0982613 2.31298e-18 0.00300587
0.756813 0.271334 0 0.00390335
0.797951 0.10551 2.31298e-18 0.0030676
0.715676 0.368496 0 0.00445838
0.151552 0.791472 0 0.0170851
0.797951 0.113022 2.31298e-18 0.00312278
0.219992 0.775831 3.46945e-18 0.0146453
0.797951 0.118211 7.70372e-34 0.0031561
0.770526 0.239487 1.54074e-33 0.00378193
0.797951 0.120806 0 0.00317276
0.67013 0.450382 3.46945e-18 0.00496928
0.797951 0.128874 3.08149e-33 0.00321834
0.467897 0.659208 0 0.00800626
0.756813 0.284866 -3.46945e-18 0.00392973
0.743101 0.320819 -7.70372e-34 0.0041585
0.797951 0.137234 0 0.00326025
0.797951 0.141566 0 0.00327967
0.797951 0.145897 -9.25187e-19 0.00329909
0.523729 0.619475 0 0.00710457
0.075776 0.807681 0 0.0196647
0.797951 0.150387 0 0.00331723
0.797951 0.154876 0 0.00333536
0.715676 0.385557 0 0.0044824
0.412065 0.700877 3.08149e-33 0.00928193
0.288433 0.76019 0 0.0125743
0.756813 0.29889 0 0.00395592
0.797951 0.16418 0 0.00336942
0.624584 0.523639 0 0.00559632
0.797951 0.167394 7.70372e-34 0.00338015
0.797951 0.173822 2.31298e-18 0.0034016
0.574156 0.582034 0 0.00623883
0.67013 0.470415 0 0.00498674
0.797951 0.183814 2.31298e-18 0.00343221
0.756813 0.313423 -3.46945e-18 0.00398187
0.797951 0.194169 -9.25187e-19 0.00346148
0.715676 0.403236 0 0.00450508
0.151552 0.807681 0 0.0169959
0.797951 0.197746 -7.70372e-34 0.00347087
0.350249 0.745097 0 0.0105833
0.797951 0.2049 3.08149e-33 0.00348963
0 0.823889 0 0.0140366
0.756813 0.328483 -3.46945e-18 0.00400744
0.797951 0.21046 0 0.00350325
0.797951 0.21602 -3.08149e-33 0.00351686
0.797951 0.223703 7.70372e-34 0.00353451
0.797951 0.227544 9.25187e-19 0.00354333
0.624584 0.546332 0 0.00561423
0.715676 0.421557 0 0.00452636
0.67013 0.491176 -3.46945e-18 0.00500394
0.797951 0.231525 7.70372e-34 0.00355195
0.467897 0.686824 -3.46945e-18 0.00802839
0.523729 0.645647 0 0.00712683
0.756813 0.344091 -3.46945e-18 0.00403249
0.822721 0.120806 7.70372e-34 0.00302682
0.797951 0.239487 -3.08149e-33 0.0035692
0.822721 0.137234 7.70372e-34 0.00311425
0.835106 0.00184056 0 2.32888e-07
0.835106 0.00558849 0 3.59738e-06
0.835106 0.00947248 0 2.55303e-05
0.835106 0.0134975 0 5.07682e-05
0.835107 0.0176687 0 7.21449e-05
0.835106 0.0219913 -3.46945e-18 9.55688e-05