# nutMean  POINT_DATA 63140
# x  y  z  nutMean
0 0.1 0 0.00532269
0 0.1 -0.0179898 0.00532753
0 0.1 0.0179898 0.00531729
0.0363518 0.1 0.0179898 0.0126593
0.0363518 0.1 -0.0179898 0.0133251
0 0.1 -0.0570102 0.00534309
0 0.1 0.0570102 0.00531273
0.0363518 0.1 0.0570102 0.0126548
0.0363518 0.1 -0.0570102 0.0133407
0 0.1 -0.075 0.0053529
0 0.1 0.075 0.00531413
0.075776 0.1 -0.0375 0.0217347
0.075776 0.1 0.0375 0.0204046
0 0.1 -0.0929898 0.00536226
0 0.1 0.0929898 0.00531498
0.0363518 0.1 -0.0929898 0.0130211
0.0363518 0.1 0.0929898 0.011763
0 0.1 -0.13201 0.00539431
0 0.1 0.13201 0.005323
0.075776 0.1 -0.1125 0.0210751
0.075776 0.1 0.1125 0.0186008
0.0363518 0.1 -0.13201 0.0130532
0.0363518 0.1 0.13201 0.011771
0 0.1 -0.15 0.0054153
0 0.1 0.15 0.00532987
0.150379 0.1 -2.22623e-17 0.0187919
0 0.1 -0.16799 0.00543641
0 0.1 0.16799 0.00533664
0.150379 0.1 -0.075 0.018967
0.150379 0.1 0.075 0.018017
0.0363518 0.1 -0.16799 0.0123361
0.0363518 0.1 0.16799 0.0107701
0.075776 0.1 -0.1875 0.0196057
0.075776 0.1 0.1875 0.0165581
0 0.1 -0.20701 0.00548472
0 0.1 0.20701 0.00535238
0.0363518 0.1 -0.20701 0.0123844
0.0363518 0.1 0.20701 0.0107859
0.150379 0.1 -0.15 0.0181689
0.150379 0.1 0.15 0.0166604
0.219993 0.1 -0.0375 0.0166156
0.219993 0.1 0.0375 0.0165963
0 0.1 -0.225 0.00550995
0 0.1 0.225 0.00536053
0 0.1 -0.24299 0.0055363
0 0.1 0.24299 0.00536934
0.0363518 0.1 0.24299 0.00989685
0.0363518 0.1 -0.24299 0.0114393
0.219993 0.1 -0.1125 0.0166381
0.219993 0.1 0.1125 0.0165826
0.150379 0.1 -0.225 0.0166617
0.150379 0.1 0.225 0.0147873
0.075776 0.1 -0.2625 0.0176966
0.075776 0.1 0.2625 0.0147356
0 0.1 -0.28201 0.0055773
0 0.1 0.28201 0.00538334
0.0363518 0.1 -0.28201 0.0114803
0.0363518 0.1 0.28201 0.00991085
0.287374 0.1 -2.89121e-19 0.0134869
0.219992 0.1 0.1875 0.0149633
0.219992 0.1 -0.1875 0.0155181
0.287374 0.1 -0.075 0.0135015
0.287374 0.1 0.075 0.0134368
0 0.1 -0.3 0.00559165
0 0.1 0.3 0.00538837
0 0.1 0.31799 0.0053944
0 0.1 -0.31799 0.00560749
0.0363518 0.1 -0.31799 0.0106497
0.0363518 0.1 0.31799 0.00924513
0.287374 0.1 0.15 0.0129557
0.287374 0.1 -0.15 0.013169
0.150379 0.1 -0.3 0.01531
0.150379 0.1 0.3 0.0133827
0.219993 0.1 0.2625 0.012948
0.219993 0.1 -0.2625 0.0139711
0.075776 0.1 -0.3375 0.0160269
0.075776 0.1 0.3375 0.0133766
0.350249 0.1 -0.0375 0.0105146
0.350249 0.1 0.0375 0.0104581
0 0.1 -0.35701 0.00562739
0 0.1 0.35701 0.00539612
0.0363518 0.1 -0.35701 0.0106696
0.0363518 0.1 0.35701 0.00924684
0.287374 0.1 -0.225 0.012425
0.287374 0.1 0.225 0.0119397
0.350249 0.1 -0.1125 0.0104754
0.350249 0.1 0.1125 0.0103501
0 0.1 -0.375 0.00563268
0 0.1 0.375 0.0053929
0 0.1 -0.39299 0.00563873
0 0.1 0.39299 0.00539028
0.0363518 0.1 -0.39299 0.0101857
0.0363518 0.1 0.39299 0.00891628
0.350249 0.1 -0.1875 0.0102642
0.350249 0.1 0.1875 0.0101441
0.219992 0.1 -0.3375 0.0136674
0.219992 0.1 0.3375 0.0125152
0.150379 0.1 0.375 0.0126584
0.150379 0.1 -0.375 0.014514
0.411108 0.1 4.33681e-19 0.00867849
0.287374 0.1 -0.3 0.0119239
0.287374 0.1 0.3 0.0112429
0.411108 0.1 -0.075 0.00868892
0.411108 0.1 0.075 0.00863794
0.075776 0.1 -0.4125 0.0150519
0.075776 0.1 0.4125 0.0127041
0 0.1 0.43201 0.0053795
0 0.1 -0.43201 0.00564012
0.0363518 0.1 0.43201 0.0089055
0.0363518 0.1 -0.43201 0.0101871
0.411108 0.1 -0.15 0.00863865
0.411108 0.1 0.15 0.0085649
0.350249 0.1 -0.2625 0.0101303
0.350249 0.1 0.2625 0.00986304
0 0.1 -0.45 0.00563684
0 0.1 0.45 0.00537299
0.219992 0.1 0.4125 0.0120607
0.219992 0.1 -0.4125 0.0133905
0 0.1 -0.46799 0.00563359
0 0.1 0.46799 0.00536656
0.411108 0.1 -0.225 0.00857581
0.411108 0.1 0.225 0.0084518
0.467897 0.1 -0.0375 0.00694635
0.467897 0.1 0.0375 0.00693775
0.0363518 0.1 0.46799 0.00867852
0.0363518 0.1 -0.46799 0.00991985
0.287374 0.1 -0.375 0.0118074
0.287374 0.1 0.375 0.0110159
0.150379 0.1 0.45 0.0125096
0.150379 0.1 -0.45 0.0140141
0.467897 0.1 0.1125 0.00694528
0.467897 0.1 -0.1125 0.00696203
0.350249 0.1 -0.3375 0.0100906
0.350249 0.1 0.3375 0.0097671
0.075776 0.1 -0.4875 0.0145055
0.075776 0.1 0.4875 0.0122409
0.467897 0.1 0.1875 0.00695261
0.467897 0.1 -0.1875 0.00698917
0 0.1 -0.50701 0.00562127
0 0.1 0.50701 0.00534744
0.0363518 0.1 -0.50701 0.00990753
0.0363518 0.1 0.50701 0.0086594
0.411108 0.1 0.3 0.0083714
0.411108 0.1 -0.3 0.0085641
0.522865 0.1 1.41031e-17 0.00599257
0 0.1 -0.525 0.00561381
0 0.1 0.525 0.00533639
0.522865 0.1 -0.075 0.00600858
0.522865 0.1 0.075 0.0059944
0.287374 0.1 0.45 0.011195
0.287374 0.1 -0.45 0.0117709
0.219992 0.1 0.4875 0.0130233
0.219992 0.1 -0.4875 0.0131644
0.467897 0.1 -0.2625 0.00704685
0.467897 0.1 0.2625 0.00696919
0.350249 0.1 -0.4125 0.0102297
0.350249 0.1 0.4125 0.00982644
0 0.1 -0.54299 0.00560616
0 0.1 0.54299 0.00532502
0.522865 0.1 0.15 0.00601197
0.522865 0.1 -0.15 0.0060401
0.0363518 0.1 0.54299 0.00847309
0.0363518 0.1 -0.54299 0.00964211
0.150379 0.1 -0.525 0.014074
0.150379 0.1 0.525 0.0127563
0.411108 0.1 -0.375 0.00863949
0.411108 0.1 0.375 0.00839463
0.075776 0.1 -0.5625 0.0139673
0.075776 0.1 0.5625 0.0118606
0.522865 0.1 -0.225 0.00608967
0.522865 0.1 0.225 0.00604098
0.574156 0.1 0.0375 0.0050747
0.574157 0.1 -0.0375 0.00508337
0.467897 0.1 -0.3375 0.007111
0.467897 0.1 0.3375 0.00699972
0 0.1 -0.58201 0.00558401
0 0.1 0.58201 0.00530119
0.0363518 0.1 -0.58201 0.00961996
0.0363518 0.1 0.58201 0.00844926
0.574157 0.1 -0.1125 0.00511414
0.574157 0.1 0.1125 0.00509157
0.287374 0.1 -0.525 0.0121905
0.287374 0.1 0.525 0.011728
0 0.1 -0.6 0.00557138
0 0.1 0.6 0.00529032
0.350249 0.1 0.4875 0.00998644
0.350249 0.1 -0.4875 0.0104271
0.522865 0.1 -0.3 0.00616425
0.522865 0.1 0.3 0.00608295
0.219992 0.1 -0.5625 0.0146699
0.219992 0.1 0.5625 0.0138376
0.574156 0.1 -0.1875 0.00516576
0.574156 0.1 0.1875 0.00512931
0.411108 0.1 0.45 0.00851569
0.411108 0.1 -0.45 0.00880513
0 0.1 -0.61799 0.00555808
0 0.1 0.61799 0.00527878
0.150379 0.1 -0.6 0.0143196
0.150379 0.1 0.6 0.0127416
0.0363518 0.1 -0.61799 0.00938706
0.0363518 0.1 0.61799 0.00828887
0.467897 0.1 -0.4125 0.00724798
0.467897 0.1 0.4125 0.00709629
0.623803 0.1 2.34188e-17 0.00452672
0.623803 0.1 0.075 0.00452977
0.623803 0.1 -0.075 0.00454725
0.574156 0.1 0.2625 0.00518224
0.574156 0.1 -0.2625 0.00522696
0.623803 0.1 0.15 0.00455629
0.623803 0.1 -0.15 0.00458863
0.075776 0.1 0.6375 0.0115308
0.075776 0.1 -0.6375 0.0134915
0.522865 0.1 -0.375 0.00627616
0.522865 0.1 0.375 0.00615565
0 0.1 0.65701 0.00525747
0 0.1 -0.65701 0.00553132
0.0363518 0.1 0.65701 0.00826756
0.0363518 0.1 -0.65701 0.0093603
0.350249 0.1 0.5625 0.0102158
0.350249 0.1 -0.5625 0.0106602
0.623803 0.1 0.225 0.00460178
0.623803 0.1 -0.225 0.00464668
0.287374 0.1 -0.6 0.0127709
0.287374 0.1 0.6 0.0119865
0.574157 0.1 -0.3375 0.00534121
0.574157 0.1 0.3375 0.00524859
0.411108 0.1 0.525 0.00871671
0.411108 0.1 -0.525 0.00901753
0.67013 0.1 0.0375 0.0039885
0.67013 0.1 -0.0375 0.00399903
0.219992 0.1 -0.6375 0.0151012
0.219993 0.1 0.6375 0.0136446
0 0.1 -0.675 0.0055194
0 0.1 0.675 0.00524896
0.467897 0.1 -0.4875 0.00743856
0.467897 0.1 0.4875 0.00726473
0.67013 0.1 -0.1125 0.0040311
0.67013 0.1 0.1125 0.00400311
0.522865 0.1 0.45 0.00628061
0.522865 0.1 -0.45 0.00643326
0.150379 0.1 0.675 0.0124576
0.150379 0.1 -0.675 0.0141761
0.623803 0.1 0.3 0.00466386
0.623803 0.1 -0.3 0.00473515
0 0.1 -0.69299 0.00550634
0 0.1 0.69299 0.00523969
0.0363518 0.1 -0.69299 0.00915094
0.0363518 0.1 0.69299 0.00813196
0.67013 0.1 -0.1875 0.00408215
0.67013 0.1 0.1875 0.00404001
0.574156 0.1 0.4125 0.00534527
0.574157 0.1 -0.4125 0.0054727
0.714971 0.1 -2.8382e-17 0.00363131
0.075776 0.1 -0.7125 0.0130619
0.075776 0.1 0.7125 0.0112509
0.714971 0.1 -0.075 0.00365302
0.714971 0.1 0.075 0.00363167
0.67013 0.1 0.2625 0.00409434
0.67013 0.1 -0.2625 0.00415032
0.411108 0.1 -0.6 0.00924766
0.411108 0.1 0.6 0.00895456
0.350249 0.1 0.6375 0.0104023
0.350249 0.1 -0.6375 0.0108555
0.623803 0.1 0.375 0.00474419
0.623803 0.1 -0.375 0.00485486
0.714971 0.1 -0.15 0.00369379
0.714971 0.1 0.15 0.00365467
0.467897 0.1 -0.5625 0.00767074
0.467897 0.1 0.5625 0.0075112
0 0.1 -0.73201 0.00548221
0 0.1 0.73201 0.00522327
0.0363518 0.1 0.73201 0.00811553
0.0363518 0.1 -0.73201 0.00912681
0.287374 0.1 -0.675 0.0129305
0.287374 0.1 0.675 0.011933
0.522865 0.1 -0.525 0.00663344
0.522865 0.1 0.525 0.00646636
0.219993 0.1 -0.7125 0.01497
0.219992 0.1 0.7125 0.0133073
0.714971 0.1 -0.225 0.00375457
0.714971 0.1 0.225 0.00369726
0 0.1 0.75 0.005217
0 0.1 -0.75 0.00547243
0.67013 0.1 -0.3375 0.00426047
0.67013 0.1 0.3375 0.00416882
0.574156 0.1 -0.4875 0.0056427
0.574157 0.1 0.4875 0.00548416
0.756813 0.1 0.0375 0.00327409
0.756814 0.1 -0.0375 0.00328681
0.150379 0.1 0.746002 0.0121632
0.150379 0.1 -0.75 0.0138917
0.756813 0.1 -0.1125 0.00331827
0.756813 0.1 0.1125 0.00328426
0 0.1 0.76799 0.00520994
0 0.1 -0.76799 0.0054614
0.0363518 0.1 0.76799 0.00800642
0.0363518 0.1 -0.76799 0.00893979
0.623803 0.1 -0.45 0.00499966
0.623803 0.1 0.45 0.00485381
0.714971 0.1 -0.3 0.00384109
0.714971 0.1 0.3 0.00375803
0.756814 0.1 -0.1875 0.00336682
0.756814 0.1 0.1875 0.00331475
0.67013 0.1 -0.4125 0.00438363
0.67013 0.1 0.4125 0.00425267
0.411108 0.1 0.675 0.00917055
0.411108 0.1 -0.675 0.00945773
0.467897 0.1 0.6375 0.00779898
0.467897 0.1 -0.6375 0.00793454
0.075776 0.1 0.7875 0.0110252
0.075776 0.1 -0.7875 0.0126766
0.350249 0.1 -0.7125 0.0109963
0.350249 0.1 0.7125 0.0105137
0.522865 0.1 -0.6 0.00687104
0.522865 0.1 0.6 0.0067069
0.797314 0.1 -3.59473e-17 0.00302426
0.287374 0.1 0.746002 0.0118496
0.797314 0.1 -0.075 0.00304593
0.797314 0.1 0.075 0.00302218
0.756814 0.1 -0.2625 0.00344208
0.756814 0.1 0.2625 0.0033636
0.287374 0.1 -0.75 0.0129148
0.574156 0.1 -0.5625 0.00585188
0.574156 0.1 0.5625 0.00567525
0 0.1 0.80701 0.00519815
0 0.1 -0.80701 0.00544121
0.714971 0.1 -0.375 0.00395135
0.714971 0.1 0.375 0.00383595
0.0363518 0.1 0.80701 0.00799462
0.0363518 0.1 -0.80701 0.0089196
0.797314 0.1 -0.15 0.00308435
0.797314 0.1 0.15 0.00304011
0.623803 0.1 -0.525 0.00517998
0.623803 0.1 0.525 0.00500499
0.219992 0.1 0.7875 0.0129962
0.219992 0.1 -0.7875 0.0147646
0.149792 0.1 0.80701 0.0119797
0 0.1 0.825 0.00519411
0 0.1 -0.825 0.00543302
0.797314 0.1 -0.225 0.00314316
0.797314 0.1 0.225 0.00307648
0.756813 0.1 -0.3375 0.00353475
0.756813 0.1 0.3375 0.00342921
0.67013 0.1 0.4875 0.00437232
0.67013 0.1 -0.4875 0.00453861
0.835106 0.1 -0.0375 0.00278169
0.835106 0.1 0.0375 0.00276915
0.150379 0.1 -0.825 0.0136129
0.835106 0.1 -0.1125 0.00281166
0.835106 0.1 0.1125 0.00277597
0 0.1 -0.84299 0.00542362
0 0.1 0.84299 0.00518926
0.0363518 0.1 -0.84299 0.0087621
0.0363518 0.1 0.84299 0.00791209
0.714971 0.1 -0.45 0.00408537
0.714971 0.1 0.45 0.00393293
0.411108 0.1 0.746002 0.0093555
0.797314 0.1 -0.3 0.00322086
0.797314 0.1 0.3 0.00312956
0.467897 0.1 -0.7125 0.00817432
0.467897 0.1 0.7125 0.0080745
0.522865 0.1 0.675 0.00697507
0.522865 0.1 -0.675 0.00713009
0.411108 0.1 -0.75 0.00964153
0.835106 0.1 -0.1875 0.00285547
0.835107 0.1 0.1875 0.00280034
0.286844 0.1 0.80701 0.0117477
0.574156 0.1 0.6375 0.00591443
0.574157 0.1 -0.6375 0.00609876
0.350249 0.1 -0.7875 0.011116
0.350249 0.1 0.7875 0.0105866
0.756813 0.1 -0.4125 0.0036502
0.756814 0.1 0.4125 0.00351701
0.623803 0.1 -0.6 0.00539585
0.623803 0.1 0.6 0.00520025
0.075776 0.1 0.8625 0.0108543
0.075776 0.1 -0.8625 0.012352
0.871687 0.1 -3.2767e-18 0.00258533
0.287374 0.1 -0.825 0.0128753
0.871687 0.1 -0.075 0.0026068
0.871687 0.1 0.075 0.00258158
0.67013 0.1 -0.5625 0.0047263
0.67013 0.1 0.5625 0.00452837
0.835106 0.1 0.2625 0.00284231
0.835106 0.1 -0.2625 0.00292327
0.797314 0.1 -0.375 0.00331907
0.797314 0.1 0.375 0.00320072
0 0.1 -0.88201 0.0054068
0 0.1 0.88201 0.00518214
0.0363518 0.1 0.88201 0.00790497
0.0363518 0.1 -0.88201 0.00874529
0.871687 0.1 0.15 0.00259517
0.871687 0.1 -0.15 0.00264188
0.714971 0.1 0.525 0.00405886
0.714971 0.1 -0.525 0.00424929
0.219993 0.1 0.8625 0.0127581
0.219992 0.1 -0.8625 0.014556
0 0.1 0.9 0.0051804
0 0.1 -0.9 0.00540018
0.756813 0.1 0.4875 0.00361389
0.756814 0.1 -0.4875 0.003793
0.871687 0.1 0.225 0.00262526
0.871687 0.1 -0.225 0.00269414
0.835106 0.1 -0.3375 0.00299871
0.835106 0.1 0.3375 0.00289842
0.41063 0.1 0.80701 0.00944952
0.90582 0.1 -0.0375 0.00240667
0.905821 0.1 0.0375 0.00239342
0.522865 0.1 0.746002 0.0072447
0.150379 0.1 0.9 0.0117574
0.90582 0.1 0.1125 0.00239741
0.905821 0.1 -0.1125 0.00243677
0.522865 0.1 -0.75 0.00739999
0.574156 0.1 0.7125 0.00618631
0.574156 0.1 -0.7125 0.00638401
0.797314 0.1 -0.45 0.00344318
0.797314 0.1 0.45 0.00328687
0.467897 0.1 -0.7875 0.00840359
0.467897 0.1 0.7875 0.00829424
0.150379 0.1 -0.903998 0.0134121
0 0.1 0.91799 0.00517782
0 0.1 -0.91799 0.00539237
0.0363518 0.1 0.91799 0.00784824
0.0363518 0.1 -0.91799 0.00861687
0.623803 0.1 0.675 0.00543433
0.623803 0.1 -0.675 0.00564663
0.411108 0.1 -0.825 0.00981982
0.871687 0.1 0.3 0.00267069
0.871687 0.1 -0.3 0.00276232
0.67013 0.1 -0.6375 0.0049468
0.67013 0.1 0.6375 0.00472452
0.90582 0.1 -0.1875 0.00247332
0.90582 0.1 0.1875 0.00241668
0.350249 0.1 0.8625 0.0106559
0.350249 0.1 -0.8625 0.0112388
0.835106 0.1 -0.4125 0.0031083
0.835106 0.1 0.4125 0.00297385
0.714971 0.1 -0.6 0.00444426
0.714971 0.1 0.6 0.00422087
0.93886 0.1 -1.15648e-17 0.00229701
0.075776 0.1 0.9375 0.0107366
0.075776 0.1 -0.9375 0.0120872
0.93886 0.1 0.075 0.00229298
0.93886 0.1 -0.075 0.00231757
0.756813 0.1 0.5625 0.00374583
0.756814 0.1 -0.5625 0.00396366
0.905821 0.1 -0.2625 0.00253435
0.905821 0.1 0.2625 0.00245159
0.287374 0.1 0.9 0.011662
0.287374 0.1 -0.903998 0.0128106
0.871687 0.1 0.375 0.00273136
0.871687 0.1 -0.375 0.00285258
0.93886 0.1 -0.15 0.00234855
0.93886 0.1 0.15 0.00230427
0.797314 0.1 0.525 0.00339349
0.797314 0.1 -0.525 0.00359201
0 0.1 0.95701 0.00517559
0 0.1 -0.95701 0.00537912
0.0363518 0.1 0.95701 0.00784601
0.0363518 0.1 -0.95701 0.00860362
0.522433 0.1 0.80701 0.0074314
0.219992 0.1 0.9375 0.01259
0.219992 0.1 -0.9375 0.0143571
0.93886 0.1 0.225 0.00232986
0.93886 0.1 -0.225 0.00239282
0.90582 0.1 0.3375 0.0025005
0.905821 0.1 -0.3375 0.002603
0.835106 0.1 -0.4875 0.00323719
0.835107 0.1 0.4875 0.00305871
0.969689 0.1 -0.0375 0.0022018
0.969689 0.1 0.0375 0.00219041
0.61613 0.1 0.75 0.00569631
0.574156 0.1 -0.7875 0.00670501
0.574156 0.1 0.7875 0.00647585
0 0.1 0.975 0.00517626
0 0.1 -0.975 0.00537432
0.623803 0.1 -0.75 0.00593291
0.969689 0.1 -0.1125 0.00222935
0.969689 0.1 0.1125 0.00219488
0.522865 0.1 -0.825 0.00767932
0.67013 0.1 0.7125 0.00495515
0.67013 0.1 -0.7125 0.00519832
0.871687 0.1 -0.45 0.00296985
0.871687 0.1 0.45 0.00280762
0.467897 0.1 0.8625 0.00847124
0.467897 0.1 -0.8625 0.00864256
0.714971 0.1 -0.675 0.00467227
0.714971 0.1 0.675 0.00441783
0.93886 0.1 -0.3 0.00245539
0.93886 0.1 0.3 0.00236946
0.150379 0.1 0.975 0.0116383
0.150379 0.1 -0.975 0.0131576
0.969689 0.1 -0.1875 0.00225918
0.969689 0.1 0.1875 0.00221234
0.411108 0.1 0.9 0.00959921
0.756813 0.1 0.6375 0.0039106
0.756814 0.1 -0.6375 0.00416517
0.990306 0.1 -2.19732e-17 0.00211213
0 0.1 0.99299 0.00517606
0 0.1 -0.99299 0.00536835
0.411108 0.1 -0.903998 0.00995591
0.990306 0.1 -0.075 0.00213041
0.990306 0.1 0.075 0.00210861
0.0363518 0.1 0.99299 0.00781329
0.0363518 0.1 -0.99299 0.0085026
0.90582 0.1 -0.4125 0.00271047
0.905821 0.1 0.4125 0.00256302
0.797314 0.1 -0.6 0.00376864
0.797314 0.1 0.6 0.00353062
0.350249 0.1 0.9375 0.0107339
0.350249 0.1 -0.9375 0.0113718
0.990306 0.1 0.15 0.0021191
0.990306 0.1 -0.15 0.00215844
0.969689 0.1 -0.2625 0.00230906
0.969689 0.1 0.2625 0.00224311
0.835106 0.1 -0.5625 0.00339064
0.835106 0.1 0.5625 0.00317192
0.93886 0.1 -0.375 0.002544
0.93886 0.1 0.375 0.00242178
0.075776 0.1 1.0125 0.0106687
0.075776 0.1 -1.0125 0.0118787
0.990306 0.1 -0.225 0.00219779
0.990306 0.1 0.225 0.00214232
0.287374 0.1 0.975 0.011635
0.287374 0.1 -0.975 0.0128245
0.871687 0.1 -0.525 0.00310815
0.871687 0.1 0.525 0.00290128
1.02149 0.1 -0.0369628 0.00195944
1.02149 0.1 0.0369628 0.0019488
0.969689 0.1 -0.3375 0.00237986
0.969689 0.1 0.3375 0.002287
1.02149 0.1 -0.110888 0.00197968
1.02149 0.1 0.110888 0.00195203
0.90582 0.1 0.4875 0.00264545
0.90582 0.1 -0.4875 0.00283371
0.623803 0.1 0.819003 0.00585845
0 0.1 1.03201 0.00517835
0 0.1 -1.03201 0.00535856
0.0363518 0.1 1.03201 0.00781558
0.0363518 0.1 -1.03201 0.00849282
0.67013 0.1 -0.7875 0.00548703
0.67013 0.1 0.7875 0.00521242
0.623803 0.1 -0.825 0.00624834
0.990306 0.1 -0.3 0.00225744
0.990306 0.1 0.3 0.00217855
0.219992 0.1 -1.0125 0.0141967
0.219993 0.1 1.0125 0.012469
0.574156 0.1 0.8625 0.00677887
0.574157 0.1 -0.8625 0.00703138
0.714971 0.1 -0.75 0.00493431
0.714971 0.1 0.75 0.00464568
1.02149 0.1 0.184814 0.00196685
1.02149 0.1 -0.184814 0.00201151
0.756814 0.1 -0.7125 0.00440403
0.756814 0.1 0.7125 0.0041079
0.522865 0.1 0.9 0.00771702
0.93886 0.1 -0.45 0.00265878
0.93886 0.1 0.45 0.00248886
1.04168 0.1 0 0.00187802
1.04168 0.1 -0.0729162 0.00189205
1.04168 0.1 0.0729162 0.001874
0.522865 0.1 -0.903998 0.00789505
0.797314 0.1 -0.675 0.00397712
0.797314 0.1 0.675 0.00369724
0.467897 0.1 0.9375 0.00863173
0.467897 0.1 -0.9375 0.00891101
0 0.1 1.05 0.00518099
0 0.1 -1.05 0.00535528
0.835106 0.1 -0.6375 0.00357203
0.835106 0.1 0.6375 0.00331119
1.04168 0.1 -0.145832 0.00191562
1.04168 0.1 0.145832 0.00188142
1.02149 0.1 -0.25874 0.00205501
1.02149 0.1 0.25874 0.00199324
0.969689 0.1 -0.4125 0.00248738
0.969689 0.1 0.4125 0.00234112
0.411108 0.1 0.975 0.00973318
0.411108 0.1 -0.975 0.0102188
0.871687 0.1 -0.6 0.00327248
0.871687 0.1 0.6 0.00301776
1.0579 0.1 -0.0360525 0.00182844
1.0579 0.1 0.0360525 0.00181811
0.990306 0.1 -0.375 0.00234369
0.990306 0.1 0.375 0.00222658
0.150379 0.1 1.05 0.0115661
0.150379 0.1 -1.05 0.0130029
1.0579 0.1 0.108157 0.00181989
1.0579 0.1 -0.108157 0.00184399
1.04168 0.1 -0.218749 0.00194971
1.04168 0.1 0.218749 0.00189866
0.90582 0.1 -0.5625 0.00298144
0.90582 0.1 0.5625 0.00273983
0 0.1 -1.06799 0.00535082
0 0.1 1.06799 0.00518269
0.0363518 0.1 -1.06799 0.00841573
0.0363518 0.1 1.06799 0.00780198
0.350249 0.1 1.0125 0.0108278
0.350249 0.1 -1.0125 0.0115235
1.0579 0.1 -0.180262 0.00187174
1.0579 0.1 0.180262 0.00182975
1.02149 0.1 -0.332665 0.00212393
1.02149 0.1 0.332665 0.00203218
0.93886 0.1 -0.525 0.00279044
0.93886 0.1 0.525 0.00257022
1.08012 0.1 5.49329e-18 0.00175997
1.04168 0.1 -0.291665 0.00200018
1.04168 0.1 0.291665 0.00192657
1.08012 0.1 0.0709941 0.00175605
1.08012 0.1 -0.0709941 0.0017719
0.969689 0.1 -0.4875 0.00260828
0.96969 0.1 0.4875 0.00241063
1.0579 0.1 0.252367 0.0018484
1.0579 0.1 -0.252367 0.00190746
0.990306 0.1 -0.45 0.00245362
0.990306 0.1 0.45 0.00228752
0.287374 0.1 -1.05 0.012843
0.287374 0.1 1.05 0.011642
0.714971 0.1 0.821002 0.00487205
1.08012 0.1 -0.141988 0.00179149
1.08012 0.1 0.141988 0.0017619
0.075776 0.1 1.0875 0.01064
0.075776 0.1 -1.0875 0.0117196
0.714971 0.1 -0.825 0.00523204
0.756813 0.1 -0.7875 0.00467353
0.756814 0.1 0.7875 0.00433509
0.67013 0.1 -0.8625 0.005814
0.67013 0.1 0.8625 0.00549207
0.797314 0.1 -0.75 0.00421748
0.797314 0.1 0.75 0.00389348
0.623803 0.1 0.9 0.00626643
0.835106 0.1 -0.7125 0.00378476
0.835106 0.1 0.7125 0.00347718
0.623803 0.1 -0.903998 0.00650751
0.574156 0.1 0.9375 0.00705304
0.574156 0.1 -0.9375 0.0072714
1.02149 0.1 -0.406591 0.00221117
1.02149 0.1 0.406591 0.00208214
1.08012 0.1 -0.212982 0.00182061
1.08012 0.1 0.212982 0.00177536
1.10076 0.1 -0.0349809 0.00170663
1.10076 0.1 0.0349809 0.00169745
0.871687 0.1 -0.675 0.0034665
0.871687 0.1 0.675 0.00316179
1.04168 0.1 -0.364581 0.0020699
1.04168 0.1 0.364581 0.00196517
1.10076 0.1 -0.104943 0.00171968
1.10076 0.1 0.104943 0.00170013
0.522865 0.1 0.975 0.00793518
0.522865 0.1 -0.975 0.00821253
1.0579 0.1 -0.324472 0.00196388
1.0579 0.1 0.324472 0.00187701
0 0.1 -1.10701 0.0053444
0 0.1 1.10701 0.00518889
0.0363518 0.1 1.10701 0.00780818
0.0363518 0.1 -1.10701 0.0084093
0.90582 0.1 0.6375 0.00285943
0.905821 0.1 -0.6375 0.00315634
0.219992 0.1 1.0875 0.0124002
0.219992 0.1 -1.0875 0.0141026
0.93886 0.1 0.6 0.00267898
0.93886 0.1 -0.6 0.00294245
1.10076 0.1 -0.174905 0.00174241
1.10076 0.1 0.174905 0.00170994
0.467897 0.1 1.0125 0.00883799
0.467897 0.1 -1.0125 0.00919979
1.08012 0.1 -0.283976 0.00186345
1.08012 0.1 0.283976 0.0017974
1.11928 0.1 3.93204e-18 0.00165851
0.990306 0.1 -0.525 0.00257429
0.990306 0.1 0.525 0.00236207
0.96969 0.1 -0.5625 0.00274324
0.969689 0.1 0.5625 0.00249004
1.11928 0.1 -0.0690357 0.00166887
1.11928 0.1 0.0690357 0.00165539
0 0.1 1.125 0.00519338
0 0.1 -1.125 0.00534287
0.411108 0.1 -1.05 0.0104143
0.411108 0.1 1.05 0.00989516
1.10076 0.1 0.244866 0.00172715
1.10076 0.1 -0.244866 0.00177414
1.11928 0.1 -0.138072 0.0016853
1.11928 0.1 0.138072 0.00166102
1.02149 0.1 0.480517 0.00214612
1.02149 0.1 -0.480517 0.00231991
1.0579 0.1 -0.396577 0.00203333
1.0579 0.1 0.396577 0.00191514
1.04168 0.1 -0.437497 0.00215758
1.04168 0.1 0.437497 0.00201489
0.150379 0.1 1.125 0.0115374
0.150379 0.1 -1.125 0.0128975
0.714971 0.1 0.88201 0.00489083
1.08012 0.1 0.354971 0.00182854
1.08012 0.1 -0.354971 0.00192144
1.11928 0.1 -0.207107 0.00171023
1.11928 0.1 0.207107 0.00167329
0.350249 0.1 -1.0875 0.0116923
0.350249 0.1 1.0875 0.0109453
0 0.1 1.14299 0.00519682
0 0.1 -1.14299 0.00534014
0.0363518 0.1 1.14299 0.00781025
0.0363518 0.1 -1.14299 0.00835331
1.14316 0.1 -0.0339211 0.00160062
1.14316 0.1 0.0339211 0.00159324
0.797314 0.1 0.821002 0.00411338
1.10076 0.1 -0.314829 0.00182399
1.10076 0.1 0.314829 0.00175299
0.797314 0.1 -0.825 0.00449063
0.756814 0.1 -0.8625 0.00498011
0.756814 0.1 0.8625 0.00458801
1.14316 0.1 -0.101763 0.00161191
1.14316 0.1 0.101763 0.001595
0.835106 0.1 -0.7875 0.00402575
0.835106 0.1 0.7875 0.00367255
0.871687 0.1 -0.75 0.00369045
0.871687 0.1 0.75 0.00333488
0.67013 0.1 0.9375 0.00578877
0.67013 0.1 -0.9375 0.00614126
0.90582 0.1 -0.7125 0.00336349
0.905821 0.1 0.7125 0.00301116
0.714971 0.1 -0.903998 0.00551345
1.11928 0.1 0.276143 0.00169281
1.11928 0.1 -0.276143 0.00174787
1.14316 0.1 0.169605 0.00160291
1.14316 0.1 -0.169605 0.00163
0.93886 0.1 -0.675 0.00311476
0.93886 0.1 0.675 0.00281321
1.15704 0.1 0 0.00156565
1.0579 0.1 0.468682 0.0019641
1.0579 0.1 -0.468682 0.00212029
0.623803 0.1 0.975 0.0065391
0.623803 0.1 -0.975 0.00684048
0.990306 0.1 0.6 0.00246822
0.990306 0.1 -0.6 0.00271244
1.15704 0.1 -0.0671479 0.00157464
1.15704 0.1 0.0671479 0.00156297
1.04168 0.1 -0.510414 0.00225057
1.04168 0.1 0.510414 0.00207854
0.969689 0.1 -0.6375 0.0028941
0.969689 0.1 0.6375 0.00263158
1.08012 0.1 0.425965 0.00186876
1.08012 0.1 -0.425965 0.00199369
0.287374 0.1 -1.125 0.0128843
0.287374 0.1 1.125 0.011688
1.02149 0.1 -0.554443 0.0024225
1.02149 0.1 0.554443 0.00222663
0.574156 0.1 1.0125 0.00729067
0.574156 0.1 -1.0125 0.0075523
1.15704 0.1 -0.134296 0.0015883
1.15704 0.1 0.134296 0.0015677
0.075776 0.1 1.1625 0.010644
0.075776 0.1 -1.1625 0.0116039
1.10076 0.1 -0.384791 0.00188295
1.10076 0.1 0.384791 0.00178751
1.14316 0.1 -0.237448 0.00165636
1.14316 0.1 0.237448 0.00161664
1.11928 0.1 -0.345179 0.0017984
1.11928 0.1 0.345179 0.0017204
0.522865 0.1 1.05 0.00815572
0.522865 0.1 -1.05 0.00846274
1.15704 0.1 -0.201444 0.0016088
1.15704 0.1 0.201444 0.00157791
1.1744 0.1 -0.0331401 0.00153288
1.1744 0.1 0.0331401 0.0015262
1.1744 0.1 -0.0994202 0.00154303
1.1744 0.1 0.0994202 0.00152802
0 0.1 1.18201 0.00520647
0 0.1 -1.18201 0.00533724
0.0363518 0.1 1.18201 0.0078199
0.0363518 0.1 -1.18201 0.00835041
0.219992 0.1 1.1625 0.0123804
0.219993 0.1 -1.1625 0.0140466
1.14316 0.1 0.30529 0.00163719
1.14316 0.1 -0.30529 0.00169712
0.467897 0.1 1.0875 0.00907213
0.467897 0.1 -1.0875 0.00937647
1.1744 0.1 -0.1657 0.00155812
1.1744 0.1 0.1657 0.00153501
1.15704 0.1 -0.268592 0.00164016
1.15704 0.1 0.268592 0.00159395
1.0579 0.1 0.540787 0.00202784
1.0579 0.1 -0.540787 0.00220073
0.796996 0.1 0.88201 0.00430526
1.08012 0.1 -0.496959 0.00206967
1.08012 0.1 0.496959 0.00192045
1.10076 0.1 0.454752 0.00183005
1.10076 0.1 -0.454752 0.00195848
1.11928 0.1 -0.414214 0.00186104
1.11928 0.1 0.414214 0.00175585
1.04168 0.1 -0.58333 0.00236011
1.04168 0.1 0.58333 0.00215933
1.1744 0.1 -0.231981 0.00158048
1.1744 0.1 0.231981 0.00154694
0.871687 0.1 0.821002 0.00353397
0.411108 0.1 1.125 0.010079
0.411108 0.1 -1.125 0.0105494
1.19808 0.1 1.73472e-17 0.00147679
0.990306 0.1 0.675 0.00259552
0.990306 0.1 -0.675 0.00287045
1.02149 0.1 0.628368 0.0023328
1.02149 0.1 -0.628368 0.00256708
1.19808 0.1 -0.0650961 0.0014848
1.19808 0.1 0.0650961 0.00147448
0 0.1 1.2 0.00521257
0 0.1 -1.2 0.0053374
0.871687 0.1 -0.825 0.00393516
0.905821 0.1 -0.7875 0.00359842
0.90582 0.1 0.7875 0.00319079
0.835106 0.1 -0.8625 0.00430216
0.835106 0.1 0.8625 0.0038956
0.93886 0.1 -0.75 0.00331366
0.93886 0.1 0.75 0.00296271
1.14316 0.1 -0.373132 0.0017467
1.14316 0.1 0.373132 0.00166532
0.969689 0.1 0.7125 0.0027557
0.969689 0.1 -0.7125 0.00305132
1.15704 0.1 -0.33574 0.00168237
1.15704 0.1 0.33574 0.00161681
0.756813 0.1 0.9375 0.00486056
0.756814 0.1 -0.9375 0.00532186
1.19808 0.1 0.130192 0.00147846
1.19808 0.1 -0.130192 0.00149639
0.797314 0.1 -0.903998 0.00475937
0.714971 0.1 0.975 0.00546083
0.714971 0.1 -0.975 0.00587635
0.150379 0.1 1.2 0.0115492
0.150379 0.1 -1.2 0.01283
1.20938 0.1 -0.0322656 0.00145869
1.20938 0.1 0.0322656 0.00145278
1.1744 0.1 -0.298261 0.00161546
1.1744 0.1 0.298261 0.00156437
1.20938 0.1 -0.0967968 0.00146832
1.20938 0.1 0.0967968 0.00145435
1.19808 0.1 -0.195288 0.00151316
1.19808 0.1 0.195288 0.00148708
0.350249 0.1 1.1625 0.0110962
0.350249 0.1 -1.1625 0.0118325
0.67013 0.1 1.0125 0.00607385
0.67013 0.1 -1.0125 0.00644994
0 0.1 1.21799 0.00521751
0 0.1 -1.21799 0.00533631
0.0363518 0.1 -1.21799 0.00831284
0.0363518 0.1 1.21799 0.00783535
1.11928 0.1 -0.48325 0.00192651
1.11928 0.1 0.48325 0.00180095
1.10076 0.1 -0.524714 0.00202454
1.10076 0.1 0.524714 0.00188509
1.20938 0.1 0.161328 0.00146048
1.20938 0.1 -0.161328 0.00148091
1.08012 0.1 0.567953 0.00198453
1.08012 0.1 -0.567953 0.00216108
0.623803 0.1 1.05 0.00678646
0.623803 0.1 -1.05 0.00712387
1.0579 0.1 -0.612892 0.00231984
1.0579 0.1 0.612892 0.00210561
1.15704 0.1 -0.402888 0.0017346
1.15704 0.1 0.402888 0.00164646
1.14316 0.1 0.440974 0.00170028
1.14316 0.1 -0.440974 0.0018086
1.19808 0.1 -0.260384 0.00153883
1.19808 0.1 0.260384 0.00150035
1.2267 0.1 3.57064e-18 0.0014222
1.2267 0.1 -0.0636649 0.00142993
1.2267 0.1 0.0636649 0.00141993
1.1744 0.1 -0.364541 0.0016574
1.1744 0.1 0.364541 0.00158881
0.574156 0.1 1.0875 0.00750446
0.574156 0.1 -1.0875 0.00781348
1.20938 0.1 0.225859 0.00147101
1.20938 0.1 -0.225859 0.00150014
1.04168 0.1 -0.656246 0.00250428
1.04168 0.1 0.656246 0.0022595
1.2267 0.1 -0.12733 0.00144064
1.2267 0.1 0.12733 0.0014233
0.287374 0.1 1.2 0.0117656
0.287374 0.1 -1.2 0.0129257
1.02149 0.1 -0.702294 0.0027406
1.02149 0.1 0.702294 0.00245139
0.075776 0.1 -1.2375 0.0115262
0.075776 0.1 1.2375 0.0106755
0.871399 0.1 0.88201 0.00371098
0.522865 0.1 1.125 0.00838223
0.522865 0.1 -1.125 0.00860386
1.2267 0.1 -0.190994 0.00145553
1.2267 0.1 0.190994 0.001431
1.19808 0.1 -0.32548 0.00157309
1.19808 0.1 0.32548 0.00151915
0.990306 0.1 -0.75 0.00305461
0.990306 0.1 0.75 0.00272711
1.24274 0.1 -0.0314313 0.00139359
1.24274 0.1 0.0314313 0.00138816
1.20938 0.1 -0.29039 0.00152969
1.20938 0.1 0.29039 0.00148594
1.24274 0.1 -0.0942942 0.00140334
1.24274 0.1 0.0942942 0.00138908
0.93886 0.1 0.821002 0.00313145
1.11928 0.1 -0.552285 0.00200689
1.11928 0.1 0.552285 0.00185655
1.15704 0.1 -0.470036 0.00179163
1.15704 0.1 0.470036 0.00168391
0.969689 0.1 -0.7875 0.0032486
0.96969 0.1 0.7875 0.002899
0.93886 0.1 -0.825 0.00353539
0.90582 0.1 0.8625 0.00341225
0.905821 0.1 -0.8625 0.00382556
1.1744 0.1 -0.430821 0.00171037
1.1744 0.1 0.430821 0.00161892
1.10076 0.1 -0.594676 0.00213062
1.10076 0.1 0.594676 0.00194919
1.14316 0.1 -0.508816 0.0018656
1.14316 0.1 0.508816 0.00174561
1.24274 0.1 -0.157157 0.0014141
1.24274 0.1 0.157157 0.00139418
1.2267 0.1 -0.254659 0.00147822
1.2267 0.1 0.254659 0.00144293
0.467897 0.1 1.1625 0.00930905
0.467897 0.1 -1.1625 0.00942829
1.08012 0.1 0.638947 0.00206492
1.08012 0.1 -0.638947 0.00228282
1.25511 0.1 -5.78241e-19 0.00136767
0.835106 0.1 -0.9375 0.00461384
0.835106 0.1 0.9375 0.00414629
0.871687 0.1 -0.903998 0.00418106
1.25511 0.1 0.0622446 0.00136497
1.25511 0.1 -0.0622446 0.00137566
0.219992 0.1 1.2375 0.0124122
0.219992 0.1 -1.2375 0.0140232
0 0.1 -1.25701 0.00533649
0 0.1 1.25701 0.00523004
0.0363518 0.1 -1.25701 0.00831302
0.0363518 0.1 1.25701 0.00784788
0.797314 0.1 0.975 0.00464094
0.797314 0.1 -0.975 0.00511998
1.19808 0.1 -0.390576 0.00161498
1.19808 0.1 0.390576 0.00154383
1.0579 0.1 -0.684997 0.00246263
1.0579 0.1 0.684997 0.00220368
1.20938 0.1 -0.354921 0.00156509
1.20938 0.1 0.354921 0.00150692
1.25511 0.1 0.124489 0.00136738
1.25511 0.1 -0.124489 0.00138606
1.24274 0.1 -0.220019 0.00143108
1.24274 0.1 0.220019 0.00140345
0.756813 0.1 1.0125 0.00515133
0.756814 0.1 -1.0125 0.00562705
1.2267 0.1 -0.318324 0.00150824
1.2267 0.1 0.318324 0.00145969
0.411108 0.1 1.2 0.010227
0.411108 0.1 -1.2 0.0106373
1.25511 0.1 -0.186734 0.00139978
1.25511 0.1 0.186734 0.00137395
0.714971 0.1 1.05 0.00573642
0.714971 0.1 -1.05 0.00618201
1.04168 0.1 -0.729162 0.00267664
1.04168 0.1 0.729162 0.00236884
1.24274 0.1 0.282882 0.00141663
1.24274 0.1 -0.282882 0.00145625
0 0.1 1.275 0.00523751
0 0.1 -1.275 0.00533797
1.1744 0.1 0.497102 0.00165717
1.1744 0.1 -0.497102 0.00176505
1.15704 0.1 -0.537184 0.00185927
1.15704 0.1 0.537184 0.00173066
1.2756 0.1 -0.03061 0.00133051
1.2756 0.1 0.03061 0.00132479
0.67013 0.1 1.0875 0.00633301
0.67013 0.1 -1.0875 0.00674286
1.2756 0.1 -0.09183 0.00134115
1.2756 0.1 0.09183 0.00132432
1.25511 0.1 -0.248978 0.00142027
1.25511 0.1 0.248978 0.00138459
1.20938 0.1 0.419453 0.00153319
1.20938 0.1 -0.419453 0.00160881
1.11928 0.1 -0.621322 0.0021148
1.11928 0.1 0.621322 0.00192492
1.14316 0.1 -0.576659 0.00195527
1.14316 0.1 0.576659 0.00179986
1.19808 0.1 -0.455673 0.00166604
1.19808 0.1 0.455673 0.00157443
1.02149 0.1 0.776219 0.00258068
1.02149 0.1 -0.776219 0.00294602
0.150379 0.1 1.275 0.0116015
0.150379 0.1 -1.275 0.0127965
1.2756 0.1 -0.15305 0.0013513
1.2756 0.1 0.15305 0.00132799
1.2267 0.1 -0.381989 0.00154539
1.2267 0.1 0.381989 0.00148189