# pMean  POINT_DATA 63140
# x  y  z  pMean
0 0.1 0 0.201681
0 0.1 -0.0179898 0.202036
0 0.1 0.0179898 0.201329
0.0363518 0.1 0.0179898 0.201329
0.0363518 0.1 -0.0179898 0.202036
0 0.1 -0.0570102 0.202686
0 0.1 0.0570102 0.200408
0.0363518 0.1 0.0570102 0.200408
0.0363518 0.1 -0.0570102 0.202686
0 0.1 -0.075 0.202928
0 0.1 0.075 0.199915
0.075776 0.1 -0.0375 0.202425
0.075776 0.1 0.0375 0.200947
0 0.1 -0.0929898 0.203174
0 0.1 0.0929898 0.199424
0.0363518 0.1 -0.0929898 0.203174
0.0363518 0.1 0.0929898 0.199424
0 0.1 -0.13201 0.203594
0 0.1 0.13201 0.198226
0.075776 0.1 -0.1125 0.203442
0.075776 0.1 0.1125 0.198892
0.0363518 0.1 -0.13201 0.203594
0.0363518 0.1 0.13201 0.198226
0 0.1 -0.15 0.203735
0 0.1 0.15 0.197615
0.150379 0.1 -2.22623e-17 0.194813
0 0.1 -0.16799 0.203879
0 0.1 0.16799 0.197006
0.150379 0.1 -0.075 0.196127
0.150379 0.1 0.075 0.192902
0.0363518 0.1 -0.16799 0.203879
0.0363518 0.1 0.16799 0.197006
0.075776 0.1 -0.1875 0.204038
0.075776 0.1 0.1875 0.196347
0 0.1 -0.20701 0.204038
0 0.1 0.20701 0.195542
0.0363518 0.1 -0.20701 0.204038
0.0363518 0.1 0.20701 0.195542
0.150379 0.1 -0.15 0.196868
0.150379 0.1 0.15 0.19042
0.219993 0.1 -0.0375 0.189129
0.219993 0.1 0.0375 0.187387
0 0.1 -0.225 0.204041
0 0.1 0.225 0.194803
0 0.1 -0.24299 0.204048
0 0.1 0.24299 0.194067
0.0363518 0.1 0.24299 0.194067
0.0363518 0.1 -0.24299 0.204048
0.219993 0.1 -0.1125 0.190143
0.219993 0.1 0.1125 0.185033
0.150379 0.1 -0.225 0.197009
0.150379 0.1 0.225 0.187382
0.075776 0.1 -0.2625 0.204055
0.075776 0.1 0.2625 0.193269
0 0.1 -0.28201 0.203899
0 0.1 0.28201 0.192335
0.0363518 0.1 -0.28201 0.203899
0.0363518 0.1 0.28201 0.192335
0.287374 0.1 -2.89121e-19 0.191354
0.219992 0.1 0.1875 0.182074
0.219992 0.1 -0.1875 0.190486
0.287374 0.1 -0.075 0.192749
0.287374 0.1 0.075 0.189296
0 0.1 -0.3 0.203759
0 0.1 0.3 0.191478
0 0.1 0.31799 0.190622
0 0.1 -0.31799 0.203622
0.0363518 0.1 -0.31799 0.203622
0.0363518 0.1 0.31799 0.190622
0.287374 0.1 0.15 0.186615
0.287374 0.1 -0.15 0.193467
0.150379 0.1 -0.3 0.196502
0.150379 0.1 0.3 0.183807
0.219993 0.1 0.2625 0.178527
0.219993 0.1 -0.2625 0.190108
0.075776 0.1 -0.3375 0.203473
0.075776 0.1 0.3375 0.189695
0.350249 0.1 -0.0375 0.195186
0.350249 0.1 0.0375 0.193445
0 0.1 -0.35701 0.203167
0 0.1 0.35701 0.188637
0.0363518 0.1 -0.35701 0.203167
0.0363518 0.1 0.35701 0.188637
0.287374 0.1 -0.225 0.193508
0.287374 0.1 0.225 0.183334
0.350249 0.1 -0.1125 0.196268
0.350249 0.1 0.1125 0.191053
0 0.1 -0.375 0.202888
0 0.1 0.375 0.187665
0 0.1 -0.39299 0.202611
0 0.1 0.39299 0.186693
0.0363518 0.1 -0.39299 0.202611
0.0363518 0.1 0.39299 0.186693
0.350249 0.1 -0.1875 0.196699
0.350249 0.1 0.1875 0.188037
0.219992 0.1 -0.3375 0.189045
0.219992 0.1 0.3375 0.174446
0.150379 0.1 0.375 0.179753
0.150379 0.1 -0.375 0.195399
0.411108 0.1 4.33681e-19 0.199011
0.287374 0.1 -0.3 0.192861
0.287374 0.1 0.3 0.179491
0.411108 0.1 -0.075 0.200471
0.411108 0.1 0.075 0.196818
0.075776 0.1 -0.4125 0.202312
0.075776 0.1 0.4125 0.185642
0 0.1 0.43201 0.184474
0 0.1 -0.43201 0.201862
0.0363518 0.1 0.43201 0.184474
0.0363518 0.1 -0.43201 0.201862
0.411108 0.1 -0.15 0.201195
0.411108 0.1 0.15 0.193918
0.350249 0.1 -0.2625 0.196461
0.350249 0.1 0.2625 0.184437
0 0.1 -0.45 0.20145
0 0.1 0.45 0.183401
0.219992 0.1 0.4125 0.169958
0.219992 0.1 -0.4125 0.187459
0 0.1 -0.46799 0.20104
0 0.1 0.46799 0.182329
0.411108 0.1 -0.225 0.201182
0.411108 0.1 0.225 0.190351
0.467897 0.1 -0.0375 0.204473
0.467897 0.1 0.0375 0.202555
0.0363518 0.1 0.46799 0.182329
0.0363518 0.1 -0.46799 0.20104
0.287374 0.1 -0.375 0.191584
0.287374 0.1 0.375 0.175154
0.150379 0.1 0.45 0.175289
0.150379 0.1 -0.45 0.193757
0.467897 0.1 0.1125 0.199846
0.467897 0.1 -0.1125 0.205568
0.350249 0.1 -0.3375 0.195545
0.350249 0.1 0.3375 0.180293
0.075776 0.1 -0.4875 0.200597
0.075776 0.1 0.4875 0.181169
0.467897 0.1 0.1875 0.196379
0.467897 0.1 -0.1875 0.205857
0 0.1 -0.50701 0.200017
0 0.1 0.50701 0.179905
0.0363518 0.1 -0.50701 0.200017
0.0363518 0.1 0.50701 0.179905
0.411108 0.1 0.3 0.186173
0.411108 0.1 -0.3 0.200431
0.522865 0.1 1.41031e-17 0.20904
0 0.1 -0.525 0.199485
0 0.1 0.525 0.178744
0.522865 0.1 -0.075 0.210605
0.522865 0.1 0.075 0.206611
0.287374 0.1 0.45 0.170389
0.287374 0.1 -0.45 0.189738
0.219992 0.1 0.4875 0.165134
0.219992 0.1 -0.4875 0.18537
0.467897 0.1 -0.2625 0.205334
0.467897 0.1 0.2625 0.192214
0.350249 0.1 -0.4125 0.193997
0.350249 0.1 0.4125 0.175662
0 0.1 -0.54299 0.198955
0 0.1 0.54299 0.177583
0.522865 0.1 0.15 0.203354
0.522865 0.1 -0.15 0.211296
0.0363518 0.1 0.54299 0.177583
0.0363518 0.1 -0.54299 0.198955
0.150379 0.1 -0.525 0.191602
0.150379 0.1 0.525 0.170485
0.411108 0.1 -0.375 0.198979
0.411108 0.1 0.375 0.181443
0.075776 0.1 -0.5625 0.198381
0.075776 0.1 0.5625 0.176326
0.522865 0.1 -0.225 0.211113
0.522865 0.1 0.225 0.199316
0.574156 0.1 0.0375 0.21331
0.574157 0.1 -0.0375 0.215398
0.467897 0.1 -0.3375 0.204023
0.467897 0.1 0.3375 0.187435
0 0.1 -0.58201 0.197677
0 0.1 0.58201 0.174985
0.0363518 0.1 -0.58201 0.197677
0.0363518 0.1 0.58201 0.174985
0.574157 0.1 -0.1125 0.216553
0.574157 0.1 0.1125 0.210319
0.287374 0.1 -0.525 0.18735
0.287374 0.1 0.525 0.165262
0 0.1 -0.6 0.197031
0 0.1 0.6 0.173751
0.350249 0.1 0.4875 0.170555
0.350249 0.1 -0.4875 0.191837
0.522865 0.1 -0.3 0.210072
0.522865 0.1 0.3 0.194566
0.219992 0.1 -0.5625 0.182788
0.219992 0.1 0.5625 0.160072
0.574156 0.1 -0.1875 0.216776
0.574156 0.1 0.1875 0.206469
0.411108 0.1 0.45 0.176211
0.411108 0.1 -0.45 0.19687
0 0.1 -0.61799 0.196386
0 0.1 0.61799 0.172518
0.150379 0.1 -0.6 0.18899
0.150379 0.1 0.6 0.165398
0.0363518 0.1 -0.61799 0.196386
0.0363518 0.1 0.61799 0.172518
0.467897 0.1 -0.4125 0.202006
0.467897 0.1 0.4125 0.182097
0.623803 0.1 2.34188e-17 0.220677
0.623803 0.1 0.075 0.217994
0.623803 0.1 -0.075 0.222367
0.574156 0.1 0.2625 0.201816
0.574156 0.1 -0.2625 0.216061
0.623803 0.1 0.15 0.214362
0.623803 0.1 -0.15 0.223048
0.075776 0.1 0.6375 0.171183
0.075776 0.1 -0.6375 0.195688
0.522865 0.1 -0.375 0.208226
0.522865 0.1 0.375 0.189183
0 0.1 0.65701 0.169778
0 0.1 -0.65701 0.194874
0.0363518 0.1 0.65701 0.169778
0.0363518 0.1 -0.65701 0.194874
0.350249 0.1 0.5625 0.165058
0.350249 0.1 -0.5625 0.189121
0.623803 0.1 0.225 0.209834
0.623803 0.1 -0.225 0.222721
0.287374 0.1 -0.6 0.184482
0.287374 0.1 0.6 0.159845
0.574157 0.1 -0.3375 0.214455
0.574157 0.1 0.3375 0.196436
0.411108 0.1 0.525 0.170541
0.411108 0.1 -0.525 0.194147
0.67013 0.1 0.0375 0.225625
0.67013 0.1 -0.0375 0.227923
0.219992 0.1 -0.6375 0.179846
0.219993 0.1 0.6375 0.154779
0 0.1 -0.675 0.194127
0 0.1 0.675 0.168485
0.467897 0.1 -0.4875 0.199316
0.467897 0.1 0.4875 0.176275
0.67013 0.1 -0.1125 0.229138
0.67013 0.1 0.1125 0.222282
0.522865 0.1 0.45 0.183244
0.522865 0.1 -0.45 0.205632
0.150379 0.1 0.675 0.160063
0.150379 0.1 -0.675 0.185977
0.623803 0.1 0.3 0.204485
0.623803 0.1 -0.3 0.22141
0 0.1 -0.69299 0.19338
0 0.1 0.69299 0.167193
0.0363518 0.1 -0.69299 0.19338
0.0363518 0.1 0.69299 0.167193
0.67013 0.1 -0.1875 0.229271
0.67013 0.1 0.1875 0.217953
0.574156 0.1 0.4125 0.190424
0.574157 0.1 -0.4125 0.212019
0.714971 0.1 -2.8382e-17 0.233613
0.075776 0.1 -0.7125 0.192572
0.075776 0.1 0.7125 0.165794
0.714971 0.1 -0.075 0.235442
0.714971 0.1 0.075 0.230634
0.67013 0.1 0.2625 0.212693
0.67013 0.1 -0.2625 0.228328
0.411108 0.1 -0.6 0.190869
0.411108 0.1 0.6 0.164519
0.350249 0.1 0.6375 0.159262
0.350249 0.1 -0.6375 0.185898
0.623803 0.1 0.375 0.198409
0.623803 0.1 -0.375 0.219167
0.714971 0.1 -0.15 0.236105
0.714971 0.1 0.15 0.226558
0.467897 0.1 -0.5625 0.196016
0.467897 0.1 0.5625 0.170052
0 0.1 -0.73201 0.191662
0 0.1 0.73201 0.164341
0.0363518 0.1 0.73201 0.164341
0.0363518 0.1 -0.73201 0.191662
0.287374 0.1 -0.675 0.181197
0.287374 0.1 0.675 0.154186
0.522865 0.1 -0.525 0.202353
0.522865 0.1 0.525 0.176838
0.219993 0.1 -0.7125 0.176551
0.219992 0.1 0.7125 0.149271
0.714971 0.1 -0.225 0.235602
0.714971 0.1 0.225 0.221451
0 0.1 0.75 0.163004
0 0.1 -0.75 0.190825
0.67013 0.1 -0.3375 0.226357
0.67013 0.1 0.3375 0.206614
0.574156 0.1 -0.4875 0.208809
0.574157 0.1 0.4875 0.18387
0.756813 0.1 0.0375 0.238964
0.756814 0.1 -0.0375 0.241492
0.150379 0.1 0.746002 0.154937
0.150379 0.1 -0.75 0.182593
0.756813 0.1 -0.1125 0.242761
0.756813 0.1 0.1125 0.235225
0 0.1 0.76799 0.161667
0 0.1 -0.76799 0.189989
0.0363518 0.1 0.76799 0.161667
0.0363518 0.1 -0.76799 0.189989
0.623803 0.1 -0.45 0.21606
0.623803 0.1 0.45 0.191705
0.714971 0.1 -0.3 0.233962
0.714971 0.1 0.3 0.215401
0.756814 0.1 -0.1875 0.242796
0.756814 0.1 0.1875 0.230348
0.67013 0.1 -0.4125 0.223415
0.67013 0.1 0.4125 0.199809
0.411108 0.1 0.675 0.158226
0.411108 0.1 -0.675 0.187097
0.467897 0.1 0.6375 0.16351
0.467897 0.1 -0.6375 0.192166
0.075776 0.1 0.7875 0.160219
0.075776 0.1 -0.7875 0.189085
0.350249 0.1 -0.7125 0.182232
0.350249 0.1 0.7125 0.153242
0.522865 0.1 -0.6 0.19846
0.522865 0.1 0.6 0.170056
0.797314 0.1 -3.59473e-17 0.247398
0.287374 0.1 0.746002 0.148578
0.797314 0.1 -0.075 0.249385
0.797314 0.1 0.075 0.244083
0.756814 0.1 -0.2625 0.241569
0.756814 0.1 0.2625 0.224409
0.287374 0.1 -0.75 0.177535
0.574156 0.1 -0.5625 0.204912
0.574156 0.1 0.5625 0.176873
0 0.1 0.80701 0.158731
0 0.1 -0.80701 0.188092
0.714971 0.1 -0.375 0.231243
0.714971 0.1 0.375 0.208526
0.0363518 0.1 0.80701 0.158731
0.0363518 0.1 -0.80701 0.188092
0.797314 0.1 -0.15 0.250036
0.797314 0.1 0.15 0.23951
0.623803 0.1 -0.525 0.212174
0.623803 0.1 0.525 0.184482
0.219992 0.1 0.7875 0.143595
0.219992 0.1 -0.7875 0.172923
0.149792 0.1 0.80701 0.150236
0 0.1 0.825 0.157362
0 0.1 -0.825 0.187179
0.797314 0.1 -0.225 0.249346
0.797314 0.1 0.225 0.233761
0.756813 0.1 -0.3375 0.239159
0.756813 0.1 0.3375 0.217513
0.67013 0.1 0.4875 0.192393
0.67013 0.1 -0.4875 0.219597
0.835106 0.1 -0.0375 0.255754
0.835106 0.1 0.0375 0.252955
0.150379 0.1 -0.825 0.178883
0.835106 0.1 -0.1125 0.257099
0.835106 0.1 0.1125 0.248773
0 0.1 -0.84299 0.186267
0 0.1 0.84299 0.155993
0.0363518 0.1 -0.84299 0.186267
0.0363518 0.1 0.84299 0.155993
0.714971 0.1 -0.45 0.227532
0.714971 0.1 0.45 0.200946
0.411108 0.1 0.746002 0.152018
0.797314 0.1 -0.3 0.247335
0.797314 0.1 0.3 0.226936
0.467897 0.1 -0.7125 0.187846
0.467897 0.1 0.7125 0.156727
0.522865 0.1 0.675 0.162989
0.522865 0.1 -0.675 0.194032
0.411108 0.1 -0.75 0.182903
0.835106 0.1 -0.1875 0.257054
0.835107 0.1 0.1875 0.243294
0.286844 0.1 0.80701 0.143799
0.574156 0.1 0.6375 0.169537
0.574157 0.1 -0.6375 0.200411
0.350249 0.1 -0.7875 0.17819
0.350249 0.1 0.7875 0.147073
0.756813 0.1 -0.4125 0.235625
0.756814 0.1 0.4125 0.209818
0.623803 0.1 -0.6 0.207601
0.623803 0.1 0.6 0.176854
0.075776 0.1 0.8625 0.154512
0.075776 0.1 -0.8625 0.18528
0.871687 0.1 -3.2767e-18 0.26164
0.287374 0.1 -0.825 0.173545
0.871687 0.1 -0.075 0.263789
0.871687 0.1 0.075 0.25796
0.67013 0.1 -0.5625 0.214999
0.67013 0.1 0.5625 0.1845
0.835106 0.1 0.2625 0.236612
0.835106 0.1 -0.2625 0.255537
0.797314 0.1 -0.375 0.244092
0.797314 0.1 0.375 0.219177
0 0.1 -0.88201 0.184217
0 0.1 0.88201 0.153005
0.0363518 0.1 0.88201 0.153005
0.0363518 0.1 -0.88201 0.184217
0.871687 0.1 0.15 0.252846
0.871687 0.1 -0.15 0.264426
0.714971 0.1 0.525 0.192787
0.714971 0.1 -0.525 0.222937
0.219993 0.1 0.8625 0.137809
0.219992 0.1 -0.8625 0.169007
0 0.1 0.9 0.151619
0 0.1 -0.9 0.18324
0.756813 0.1 0.4875 0.201444
0.756814 0.1 -0.4875 0.231097
0.871687 0.1 0.225 0.246395
0.871687 0.1 -0.225 0.263535
0.835106 0.1 -0.3375 0.25266
0.835106 0.1 0.3375 0.228855
0.41063 0.1 0.80701 0.146727
0.90582 0.1 -0.0375 0.270269
0.905821 0.1 0.0375 0.267191
0.522865 0.1 0.746002 0.156024
0.150379 0.1 0.9 0.143061
0.90582 0.1 0.1125 0.26254
0.905821 0.1 -0.1125 0.271637
0.522865 0.1 -0.75 0.189153
0.574156 0.1 0.7125 0.161961
0.574156 0.1 -0.7125 0.195397
0.797314 0.1 -0.45 0.239719
0.797314 0.1 0.45 0.210637
0.467897 0.1 -0.7875 0.183123
0.467897 0.1 0.7875 0.149792
0.150379 0.1 -0.903998 0.175119
0 0.1 0.91799 0.150233
0 0.1 -0.91799 0.182264
0.0363518 0.1 0.91799 0.150233
0.0363518 0.1 -0.91799 0.182264
0.623803 0.1 0.675 0.168931
0.623803 0.1 -0.675 0.202441
0.411108 0.1 -0.825 0.178354
0.871687 0.1 0.3 0.238733
0.871687 0.1 -0.3 0.26111
0.67013 0.1 -0.6375 0.209729
0.67013 0.1 0.6375 0.176245
0.90582 0.1 -0.1875 0.271518
0.90582 0.1 0.1875 0.256411
0.350249 0.1 0.8625 0.140808
0.350249 0.1 -0.8625 0.173835
0.835106 0.1 -0.4125 0.248523
0.835106 0.1 0.4125 0.220193
0.714971 0.1 -0.6 0.217573
0.714971 0.1 0.6 0.184191
0.93886 0.1 -1.15648e-17 0.275932
0.075776 0.1 0.9375 0.148732
0.075776 0.1 -0.9375 0.181208
0.93886 0.1 0.075 0.271839
0.93886 0.1 -0.075 0.278275
0.756813 0.1 0.5625 0.192526
0.756814 0.1 -0.5625 0.225685
0.905821 0.1 -0.2625 0.269643
0.905821 0.1 0.2625 0.248919
0.287374 0.1 0.9 0.136303
0.287374 0.1 -0.903998 0.169758
0.871687 0.1 0.375 0.230018
0.871687 0.1 -0.375 0.257286
0.93886 0.1 -0.15 0.278933
0.93886 0.1 0.15 0.266145
0.797314 0.1 0.525 0.201461
0.797314 0.1 -0.525 0.234343
0 0.1 0.95701 0.147219
0 0.1 -0.95701 0.180088
0.0363518 0.1 0.95701 0.147219
0.0363518 0.1 -0.95701 0.180088
0.522433 0.1 0.80701 0.150128
0.219992 0.1 0.9375 0.131978
0.219992 0.1 -0.9375 0.164844
0.93886 0.1 0.225 0.258959
0.93886 0.1 -0.225 0.277883
0.90582 0.1 0.3375 0.240226
0.905821 0.1 -0.3375 0.266225
0.835106 0.1 -0.4875 0.243251
0.835107 0.1 0.4875 0.210795
0.969689 0.1 -0.0375 0.284691
0.969689 0.1 0.0375 0.281235
0.61613 0.1 0.75 0.160822
0.574156 0.1 -0.7875 0.189965
0.574156 0.1 0.7875 0.154242
0 0.1 0.975 0.145826
0 0.1 -0.975 0.179058
0.623803 0.1 -0.75 0.196801
0.969689 0.1 -0.1125 0.286153
0.969689 0.1 0.1125 0.276059
0.522865 0.1 -0.825 0.183906
0.67013 0.1 0.7125 0.167754
0.67013 0.1 -0.7125 0.203906
0.871687 0.1 -0.45 0.252179
0.871687 0.1 0.45 0.220434
0.467897 0.1 0.8625 0.142777
0.467897 0.1 -0.8625 0.178078
0.714971 0.1 -0.675 0.211567
0.714971 0.1 0.675 0.175293
0.93886 0.1 -0.3 0.275063
0.93886 0.1 0.3 0.25043
0.150379 0.1 0.975 0.137246
0.150379 0.1 -0.975 0.170669
0.969689 0.1 -0.1875 0.286072
0.969689 0.1 0.1875 0.269253
0.411108 0.1 0.9 0.138474
0.756813 0.1 0.6375 0.183242
0.756814 0.1 -0.6375 0.219537
0.990306 0.1 -2.19732e-17 0.286975
0 0.1 0.99299 0.144434
0 0.1 -0.99299 0.178029
0.411108 0.1 -0.903998 0.174046
0.990306 0.1 -0.075 0.289472
0.990306 0.1 0.075 0.282515
0.0363518 0.1 0.99299 0.144434
0.0363518 0.1 -0.99299 0.178029
0.90582 0.1 -0.4125 0.261375
0.905821 0.1 0.4125 0.230502
0.797314 0.1 -0.6 0.228108
0.797314 0.1 0.6 0.191817
0.350249 0.1 0.9375 0.134495
0.350249 0.1 -0.9375 0.169227
0.990306 0.1 0.15 0.276319
0.990306 0.1 -0.15 0.290154
0.969689 0.1 -0.2625 0.283951
0.969689 0.1 0.2625 0.260952
0.835106 0.1 -0.5625 0.236985
0.835106 0.1 0.5625 0.200811
0.93886 0.1 -0.375 0.270665
0.93886 0.1 0.375 0.240741
0.075776 0.1 1.0125 0.142927
0.075776 0.1 -1.0125 0.176915
0.990306 0.1 -0.225 0.288985
0.990306 0.1 0.225 0.268497
0.287374 0.1 0.975 0.130228
0.287374 0.1 -0.975 0.164791
0.871687 0.1 -0.525 0.245939
0.871687 0.1 0.525 0.210164
1.02149 0.1 -0.0369628 0.297061
1.02149 0.1 0.0369628 0.293317
0.969689 0.1 -0.3375 0.280094
0.969689 0.1 0.3375 0.251346
1.02149 0.1 -0.110888 0.298472
1.02149 0.1 0.110888 0.287719
0.90582 0.1 0.4875 0.219981
0.90582 0.1 -0.4875 0.255227
0.623803 0.1 0.819003 0.154126
0 0.1 1.03201 0.141419
0 0.1 -1.03201 0.175752
0.0363518 0.1 1.03201 0.141419
0.0363518 0.1 -1.03201 0.175752
0.67013 0.1 -0.7875 0.197642
0.67013 0.1 0.7875 0.159138
0.623803 0.1 -0.825 0.190781
0.990306 0.1 -0.3 0.285823
0.990306 0.1 0.3 0.25922
0.219992 0.1 -1.0125 0.160483
0.219993 0.1 1.0125 0.126139
0.574156 0.1 0.8625 0.146467
0.574157 0.1 -0.8625 0.184205
0.714971 0.1 -0.75 0.205048
0.714971 0.1 0.75 0.16622
1.02149 0.1 0.184814 0.280337
1.02149 0.1 -0.184814 0.298423
0.756814 0.1 -0.7125 0.212785
0.756814 0.1 0.7125 0.173716
0.522865 0.1 0.9 0.140961
0.93886 0.1 -0.45 0.264818
0.93886 0.1 0.45 0.230101
1.04168 0.1 0 0.300332
1.04168 0.1 -0.0729162 0.302989
1.04168 0.1 0.0729162 0.295556
0.522865 0.1 -0.903998 0.178988
0.797314 0.1 -0.675 0.221171
0.797314 0.1 0.675 0.181876
0.467897 0.1 0.9375 0.13575
0.467897 0.1 -0.9375 0.172781
0 0.1 1.05 0.140032
0 0.1 -1.05 0.174683
0.835106 0.1 -0.6375 0.229897
0.835106 0.1 0.6375 0.190454
1.04168 0.1 -0.145832 0.303725
1.04168 0.1 0.145832 0.288985
1.02149 0.1 -0.25874 0.296016
1.02149 0.1 0.25874 0.271318
0.969689 0.1 -0.4125 0.274637
0.969689 0.1 0.4125 0.240636
0.411108 0.1 0.975 0.131814
0.411108 0.1 -0.975 0.168466
0.871687 0.1 -0.6 0.238744
0.871687 0.1 0.6 0.199395
1.0579 0.1 -0.0360525 0.306337
1.0579 0.1 0.0360525 0.302434
0.990306 0.1 -0.375 0.280928
0.990306 0.1 0.375 0.248694
0.150379 0.1 1.05 0.131437
0.150379 0.1 -1.05 0.166261
1.0579 0.1 0.108157 0.296724
1.0579 0.1 -0.108157 0.307882
1.04168 0.1 -0.218749 0.302591
1.04168 0.1 0.218749 0.280703
0.90582 0.1 -0.5625 0.247979
0.90582 0.1 0.5625 0.208838
0 0.1 -1.06799 0.173614
0 0.1 1.06799 0.138645
0.0363518 0.1 -1.06799 0.173614
0.0363518 0.1 1.06799 0.138645
0.350249 0.1 1.0125 0.128196
0.350249 0.1 -1.0125 0.164423
1.0579 0.1 -0.180262 0.307879
1.0579 0.1 0.180262 0.289243
1.02149 0.1 -0.332665 0.291697
1.02149 0.1 0.332665 0.260875
0.93886 0.1 -0.525 0.257699
0.93886 0.1 0.525 0.218719
1.08012 0.1 5.49329e-18 0.310097
1.04168 0.1 -0.291665 0.299294
1.04168 0.1 0.291665 0.270891
1.08012 0.1 0.0709941 0.305153
1.08012 0.1 -0.0709941 0.312929
0.969689 0.1 -0.4875 0.26772
0.96969 0.1 0.4875 0.229057
1.0579 0.1 0.252367 0.280137
1.0579 0.1 -0.252367 0.305696
0.990306 0.1 -0.45 0.274438
0.990306 0.1 0.45 0.237146
0.287374 0.1 -1.05 0.16013
0.287374 0.1 1.05 0.124176
0.714971 0.1 0.821002 0.157772
1.08012 0.1 -0.141988 0.313775
1.08012 0.1 0.141988 0.298437
0.075776 0.1 1.0875 0.137144
0.075776 0.1 -1.0875 0.172457
0.714971 0.1 -0.825 0.198144
0.756813 0.1 -0.7875 0.205579
0.756814 0.1 0.7875 0.164091
0.67013 0.1 -0.8625 0.191049
0.67013 0.1 0.8625 0.150509
0.797314 0.1 -0.75 0.213689
0.797314 0.1 0.75 0.171781
0.623803 0.1 0.9 0.144447
0.835106 0.1 -0.7125 0.222165
0.835106 0.1 0.7125 0.179889
0.623803 0.1 -0.903998 0.185178
0.574156 0.1 0.9375 0.13872
0.574156 0.1 -0.9375 0.178211
1.02149 0.1 -0.406591 0.285616
1.02149 0.1 0.406591 0.249228
1.08012 0.1 -0.212982 0.312777
1.08012 0.1 0.212982 0.290015
1.10076 0.1 -0.0349809 0.317666
1.10076 0.1 0.0349809 0.313479
0.871687 0.1 -0.675 0.230786
0.871687 0.1 0.675 0.188323
1.04168 0.1 -0.364581 0.294124
1.04168 0.1 0.364581 0.259764
1.10076 0.1 -0.104943 0.319385
1.10076 0.1 0.104943 0.307534
0.522865 0.1 0.975 0.133605
0.522865 0.1 -0.975 0.172638
1.0579 0.1 -0.324472 0.301465
1.0579 0.1 0.324472 0.269613
0 0.1 -1.10701 0.171262
0 0.1 1.10701 0.135655
0.0363518 0.1 1.10701 0.135655
0.0363518 0.1 -1.10701 0.171262
0.90582 0.1 0.6375 0.197275
0.905821 0.1 -0.6375 0.239831
0.219992 0.1 1.0875 0.120329
0.219992 0.1 -1.0875 0.155965
0.93886 0.1 0.6 0.206823
0.93886 0.1 -0.6 0.249522
1.10076 0.1 -0.174905 0.319511
1.10076 0.1 0.174905 0.299799
0.467897 0.1 1.0125 0.128776
0.467897 0.1 -1.0125 0.167299
1.08012 0.1 -0.283976 0.309636
1.08012 0.1 0.283976 0.280067
1.11928 0.1 3.93204e-18 0.320142
0.990306 0.1 -0.525 0.266558
0.990306 0.1 0.525 0.224813
0.96969 0.1 -0.5625 0.25958
0.969689 0.1 0.5625 0.216798
1.11928 0.1 -0.0690357 0.323193
1.11928 0.1 0.0690357 0.314973
0 0.1 1.125 0.134285
0 0.1 -1.125 0.170163
0.411108 0.1 -1.05 0.163252
0.411108 0.1 1.05 0.125213
1.10076 0.1 0.244866 0.29043
1.10076 0.1 -0.244866 0.317533
1.11928 0.1 -0.138072 0.324182
1.11928 0.1 0.138072 0.308022
1.02149 0.1 0.480517 0.236635
1.02149 0.1 -0.480517 0.277924
1.0579 0.1 -0.396577 0.295459
1.0579 0.1 0.396577 0.257885
1.04168 0.1 -0.437497 0.287243
1.04168 0.1 0.437497 0.247555
0.150379 0.1 1.125 0.125674
0.150379 0.1 -1.125 0.161715
0.714971 0.1 0.88201 0.15114
1.08012 0.1 0.354971 0.268801
1.08012 0.1 -0.354971 0.304545
1.11928 0.1 -0.207107 0.323315
1.11928 0.1 0.207107 0.299352
0.350249 0.1 -1.0875 0.159484
0.350249 0.1 1.0875 0.121957
0 0.1 1.14299 0.132915
0 0.1 -1.14299 0.169064
0.0363518 0.1 1.14299 0.132915
0.0363518 0.1 -1.14299 0.169064
1.14316 0.1 -0.0339211 0.328751
1.14316 0.1 0.0339211 0.324386
0.797314 0.1 0.821002 0.1621
1.10076 0.1 -0.314829 0.313376
1.10076 0.1 0.314829 0.279632
0.797314 0.1 -0.825 0.205816
0.756814 0.1 -0.8625 0.198058
0.756814 0.1 0.8625 0.154494
1.14316 0.1 -0.101763 0.330749
1.14316 0.1 0.101763 0.318194
0.835106 0.1 -0.7875 0.21396
0.835106 0.1 0.7875 0.169255
0.871687 0.1 -0.75 0.222261
0.871687 0.1 0.75 0.177122
0.67013 0.1 0.9375 0.14196
0.67013 0.1 -0.9375 0.184237
0.90582 0.1 -0.7125 0.230994
0.905821 0.1 0.7125 0.185507
0.714971 0.1 -0.903998 0.191757
1.11928 0.1 0.276143 0.289143
1.11928 0.1 -0.276143 0.320297
1.14316 0.1 0.169605 0.310208
1.14316 0.1 -0.169605 0.330939
0.93886 0.1 -0.675 0.240513
0.93886 0.1 0.675 0.194655
1.15704 0.1 0 0.330066
1.0579 0.1 0.468682 0.245197
1.0579 0.1 -0.468682 0.287789
0.623803 0.1 0.975 0.136353
0.623803 0.1 -0.975 0.178002
0.990306 0.1 0.6 0.21196
0.990306 0.1 -0.6 0.257528
1.15704 0.1 -0.0671479 0.333361
1.15704 0.1 0.0671479 0.32466
1.04168 0.1 -0.510414 0.278852
1.04168 0.1 0.510414 0.23453
0.969689 0.1 -0.6375 0.250428
0.969689 0.1 0.6375 0.204205
1.08012 0.1 0.425965 0.256442
1.08012 0.1 -0.425965 0.297697
0.287374 0.1 -1.125 0.155346
0.287374 0.1 1.125 0.118189
1.02149 0.1 -0.554443 0.268896
1.02149 0.1 0.554443 0.223377
0.574156 0.1 1.0125 0.131072
0.574156 0.1 -1.0125 0.172062
1.15704 0.1 -0.134296 0.334523
1.15704 0.1 0.134296 0.317463
0.075776 0.1 1.1625 0.131432
0.075776 0.1 -1.1625 0.167876
1.10076 0.1 -0.384791 0.307407
1.10076 0.1 0.384791 0.267612
1.14316 0.1 -0.237448 0.329129
1.14316 0.1 0.237448 0.300577
1.11928 0.1 -0.345179 0.315245
1.11928 0.1 0.345179 0.2776
0.522865 0.1 1.05 0.126359
0.522865 0.1 -1.05 0.166766
1.15704 0.1 -0.201444 0.333822
1.15704 0.1 0.201444 0.308539
1.1744 0.1 -0.0331401 0.336859
1.1744 0.1 0.0331401 0.332248
1.1744 0.1 -0.0994202 0.339063
1.1744 0.1 0.0994202 0.32585
0 0.1 1.18201 0.129971
0 0.1 -1.18201 0.16666
0.0363518 0.1 1.18201 0.129971
0.0363518 0.1 -1.18201 0.16666
0.219992 0.1 1.1625 0.114583
0.219993 0.1 -1.1625 0.151342
1.14316 0.1 0.30529 0.2895
1.14316 0.1 -0.30529 0.325057
0.467897 0.1 1.0875 0.121914
0.467897 0.1 -1.0875 0.161698
1.1744 0.1 -0.1657 0.339367
1.1744 0.1 0.1657 0.317644
1.15704 0.1 -0.268592 0.330969
1.15704 0.1 0.268592 0.29807
1.0579 0.1 0.540787 0.231816
1.0579 0.1 -0.540787 0.278728
0.796996 0.1 0.88201 0.154057
1.08012 0.1 -0.496959 0.289277
1.08012 0.1 0.496959 0.243242
1.10076 0.1 0.454752 0.254604
1.10076 0.1 -0.454752 0.299669
1.11928 0.1 -0.414214 0.308372
1.11928 0.1 0.414214 0.264944
1.04168 0.1 -0.58333 0.269215
1.04168 0.1 0.58333 0.220944
1.1744 0.1 -0.231981 0.337815
1.1744 0.1 0.231981 0.307796
0.871687 0.1 0.821002 0.16643
0.411108 0.1 1.125 0.118723
0.411108 0.1 -1.125 0.157935
1.19808 0.1 1.73472e-17 0.340983
0.990306 0.1 0.675 0.198852
0.990306 0.1 -0.675 0.24762
1.02149 0.1 0.628368 0.209689
1.02149 0.1 -0.628368 0.258789
1.19808 0.1 -0.0650961 0.344579
1.19808 0.1 0.0650961 0.33531
0 0.1 1.2 0.128627
0 0.1 -1.2 0.165541
0.871687 0.1 -0.825 0.213359
0.905821 0.1 -0.7875 0.221701
0.90582 0.1 0.7875 0.1737
0.835106 0.1 -0.8625 0.205428
0.835106 0.1 0.8625 0.158716
0.93886 0.1 -0.75 0.230912
0.93886 0.1 0.75 0.182385
1.14316 0.1 -0.373132 0.319099
1.14316 0.1 0.373132 0.277184
0.969689 0.1 0.7125 0.19148
0.969689 0.1 -0.7125 0.240554
1.15704 0.1 -0.33574 0.326
1.15704 0.1 0.33574 0.286258
0.756813 0.1 0.9375 0.145045
0.756814 0.1 -0.9375 0.19035
1.19808 0.1 0.130192 0.32784
1.19808 0.1 -0.130192 0.345977
0.797314 0.1 -0.903998 0.198574
0.714971 0.1 0.975 0.139119
0.714971 0.1 -0.975 0.183655
0.150379 0.1 1.2 0.119994
0.150379 0.1 -1.2 0.157075
1.20938 0.1 -0.0322656 0.346124
1.20938 0.1 0.0322656 0.341277
1.1744 0.1 -0.298261 0.333845
1.1744 0.1 0.298261 0.2965
1.20938 0.1 -0.0967968 0.348622
1.20938 0.1 0.0967968 0.334644
1.19808 0.1 -0.195288 0.345498
1.19808 0.1 0.195288 0.318644
0.350249 0.1 1.1625 0.11582
0.350249 0.1 -1.1625 0.154445
0.67013 0.1 1.0125 0.133557
0.67013 0.1 -1.0125 0.177292
0 0.1 1.21799 0.127284
0 0.1 -1.21799 0.164423
0.0363518 0.1 -1.21799 0.164423
0.0363518 0.1 1.21799 0.127284
1.11928 0.1 -0.48325 0.299844
1.11928 0.1 0.48325 0.251423
1.10076 0.1 -0.524714 0.290466
1.10076 0.1 0.524714 0.240874
1.20938 0.1 0.161328 0.326198
1.20938 0.1 -0.161328 0.349046
1.08012 0.1 0.567953 0.229453
1.08012 0.1 -0.567953 0.279542
0.623803 0.1 1.05 0.128423
0.623803 0.1 -1.05 0.17142
1.0579 0.1 -0.612892 0.268521
1.0579 0.1 0.612892 0.217978
1.15704 0.1 -0.402888 0.319149
1.15704 0.1 0.402888 0.273318
1.14316 0.1 0.440974 0.263858
1.14316 0.1 -0.440974 0.311295
1.19808 0.1 -0.260384 0.342897
1.19808 0.1 0.260384 0.307904
1.2267 0.1 3.57064e-18 0.348125
1.2267 0.1 -0.0636649 0.351938
1.2267 0.1 0.0636649 0.342264
1.1744 0.1 -0.364541 0.327997
1.1744 0.1 0.364541 0.283961
0.574156 0.1 1.0875 0.123597
0.574156 0.1 -1.0875 0.165832
1.20938 0.1 0.225859 0.316115
1.20938 0.1 -0.225859 0.347779
1.04168 0.1 -0.656246 0.258621
1.04168 0.1 0.656246 0.207041
1.2267 0.1 -0.12733 0.353519
1.2267 0.1 0.12733 0.334599
0.287374 0.1 1.2 0.112297
0.287374 0.1 -1.2 0.15048
1.02149 0.1 -0.702294 0.247937
1.02149 0.1 0.702294 0.195814
0.075776 0.1 -1.2375 0.163213
0.075776 0.1 1.2375 0.125829
0.871399 0.1 0.88201 0.157564
0.522865 0.1 1.125 0.119279
0.522865 0.1 -1.125 0.160822
1.2267 0.1 -0.190994 0.353207
1.2267 0.1 0.190994 0.325211
1.19808 0.1 -0.32548 0.338099
1.19808 0.1 0.32548 0.295818
0.990306 0.1 -0.75 0.237103
0.990306 0.1 0.75 0.185669
1.24274 0.1 -0.0314313 0.354778
1.24274 0.1 0.0314313 0.349707
1.20938 0.1 -0.29039 0.34398
1.20938 0.1 0.29039 0.304583
1.24274 0.1 -0.0942942 0.357595
1.24274 0.1 0.0942942 0.342833
0.93886 0.1 0.821002 0.170714
1.11928 0.1 -0.552285 0.289924
1.11928 0.1 0.552285 0.237289
1.15704 0.1 -0.470036 0.310557
1.15704 0.1 0.470036 0.259495
0.969689 0.1 -0.7875 0.230179
0.96969 0.1 0.7875 0.178721
0.93886 0.1 -0.825 0.220943
0.90582 0.1 0.8625 0.16202
0.905821 0.1 -0.8625 0.212148
1.1744 0.1 -0.430821 0.320212
1.1744 0.1 0.430821 0.270404
1.10076 0.1 -0.594676 0.280018
1.10076 0.1 0.594676 0.22666
1.14316 0.1 -0.508816 0.30194
1.14316 0.1 0.508816 0.249783
1.24274 0.1 -0.157157 0.358165
1.24274 0.1 0.157157 0.334148
1.2267 0.1 -0.254659 0.350799
1.2267 0.1 0.254659 0.314282
0.467897 0.1 1.1625 0.115214
0.467897 0.1 -1.1625 0.156035
1.08012 0.1 0.638947 0.215326
1.08012 0.1 -0.638947 0.268767
1.25511 0.1 -5.78241e-19 0.35522
0.835106 0.1 -0.9375 0.196761
0.835106 0.1 0.9375 0.148389
0.871687 0.1 -0.903998 0.20521
1.25511 0.1 0.0622446 0.34918
1.25511 0.1 -0.0622446 0.359243
0.219992 0.1 1.2375 0.108927
0.219992 0.1 -1.2375 0.146647
0 0.1 -1.25701 0.161987
0 0.1 1.25701 0.124406
0.0363518 0.1 -1.25701 0.161987
0.0363518 0.1 1.25701 0.124406
0.797314 0.1 0.975 0.141922
0.797314 0.1 -0.975 0.189477
1.19808 0.1 -0.390576 0.331361
1.19808 0.1 0.390576 0.282599
1.0579 0.1 -0.684997 0.257478
1.0579 0.1 0.684997 0.203942
1.20938 0.1 -0.354921 0.338283
1.20938 0.1 0.354921 0.291807
1.25511 0.1 0.124489 0.341331
1.25511 0.1 -0.124489 0.361005
1.24274 0.1 -0.220019 0.357171
1.24274 0.1 0.220019 0.323832
0.756813 0.1 1.0125 0.135826
0.756814 0.1 -1.0125 0.182553
1.2267 0.1 -0.318324 0.346152
1.2267 0.1 0.318324 0.302006
0.411108 0.1 1.2 0.11238
0.411108 0.1 -1.2 0.152565
1.25511 0.1 -0.186734 0.360859
1.25511 0.1 0.186734 0.33176
0.714971 0.1 1.05 0.130439
0.714971 0.1 -1.05 0.176278
1.04168 0.1 -0.729162 0.247375
1.04168 0.1 0.729162 0.193057
1.24274 0.1 0.282882 0.312067
1.24274 0.1 -0.282882 0.353589
0 0.1 1.275 0.123096
0 0.1 -1.275 0.160859
1.1744 0.1 0.497102 0.256087
1.1744 0.1 -0.497102 0.310812
1.15704 0.1 -0.537184 0.300494
1.15704 0.1 0.537184 0.245044
1.2756 0.1 -0.03061 0.363201
1.2756 0.1 0.03061 0.357914
0.67013 0.1 1.0875 0.12539
0.67013 0.1 -1.0875 0.170318
1.2756 0.1 -0.09183 0.366355
1.2756 0.1 0.09183 0.350787
1.25511 0.1 -0.248978 0.358639
1.25511 0.1 0.248978 0.320649
1.20938 0.1 0.419453 0.278007
1.20938 0.1 -0.419453 0.330576
1.11928 0.1 -0.621322 0.278879
1.11928 0.1 0.621322 0.222789
1.14316 0.1 -0.576659 0.291254
1.14316 0.1 0.576659 0.235201
1.19808 0.1 -0.455673 0.322791
1.19808 0.1 0.455673 0.268485
1.02149 0.1 0.776219 0.181974
1.02149 0.1 -0.776219 0.236596
0.150379 0.1 1.275 0.114429
0.150379 0.1 -1.275 0.152376
1.2756 0.1 -0.15305 0.367154
1.2756 0.1 0.15305 0.341861
1.2267 0.1 -0.381989 0.339525
1.2267 0.1 0.381989 0.288595
1.10076 0.1 -0.664638 0.268638
1.10076 0.1 0.664638 0.212229
0.350249 0.1 1.2375 0.10981
0.350249 0.1 -1.2375 0.149357
0.623803 0.1 1.125 0.120718
0.623803 0.1 -1.125 0.164809
0.9386 0.1 0.88201 0.161098
0.990306 0.1 0.825 0.172999
0.990306 0.1 -0.825 0.226225
1.24274 0.1 -0.345745 0.348068
1.24274 0.1 0.345745 0.299059
1.2906 0.1 0 0.364153
1.07933 0.1 0.709941 0.201099
1.2906 0.1 -0.0604698 0.368526
1.2906 0.1 0.0604698 0.357821
1.08012 0.1 -0.709941 0.257256
0 0.1 1.29299 0.121786
0 0.1 -1.29299 0.159731
1.25511 0.1 0.311223 0.308189
1.25511 0.1 -0.311223 0.354149
1.2756 0.1 -0.214269 0.366383
1.2756 0.1 0.214269 0.331312
0.0363518 0.1 1.29299 0.121786
0.0363518 0.1 -1.29299 0.159731
1.2906 0.1 -0.12094 0.370617
1.2906 0.1 0.12094 0.349671
0.574156 0.1 1.1625 0.116337
0.574157 0.1 -1.1625 0.159574
0.969689 0.1 0.8625 0.166234
0.969689 0.1 -0.8625 0.219552
1.0579 0.1 0.757102 0.189926
1.0579 0.1 -0.757102 0.245895
1.1744 0.1 -0.563382 0.300013
1.1744 0.1 0.563382 0.241257
1.20938 0.1 0.483984 0.263437
1.20938 0.1 -0.483984 0.321172
1.2906 0.1 -0.181409 0.37075
1.2906 0.1 0.181409 0.339808
0.93886 0.1 -0.903998 0.211873
0.90582 0.1 0.9375 0.150671
0.90582 0.1 -0.9375 0.202491
1.2756 0.1 0.275489 0.319314
1.2756 0.1 -0.275489 0.3631
1.2267 0.1 -0.445653 0.331013
1.2267 0.1 0.445653 0.274286
1.15704 0.1 -0.604332 0.289218
1.15704 0.1 0.604332 0.230204
1.19808 0.1 -0.520769 0.312658
1.19808 0.1 0.520769 0.253729
1.30646 0.1 0.0298385 0.365308
1.30646 0.1 -0.0298385 0.370829
0.287374 0.1 -1.275 0.145571
0.287374 0.1 1.275 0.106527
0.871687 0.1 0.975 0.144299
0.871687 0.1 -0.975 0.195084
1.24274 0.1 0.408607 0.285025
1.24274 0.1 -0.408607 0.340485
0.522865 0.1 1.2 0.112408