# pMean  POINT_DATA 91129
# x  y  z  pMean
0 0 0 0.21562
0 0.00368111 0 0.215321
0 0.00749587 0 0.214677
0 0.0114491 0 0.214046
0 0.0155459 0 0.213478
0 0.0197915 0 0.212873
0 0.0241911 0 0.21219
0 0.0287506 0 0.211438
0 0.0334755 0 0.210637
0 0.038372 0 0.209805
0 0.0434463 0 0.208954
0 0.0487048 0 0.208093
0 0.0541543 0 0.20723
0 0.0598016 0 0.206375
0 0.0656539 0 0.205555
0 0.0717187 0 0.204791
0.075776 0.00184055 0 0.21562
0.075776 0.00558849 0 0.215022
0.075776 0.00947248 -3.46945e-18 0.214331
0.075776 0.0134975 -3.46945e-18 0.213761
0.075776 0.0176687 3.46945e-18 0.213194
0 0.0780037 0 0.204066
0.075776 0.0219913 3.46945e-18 0.212552
0.075776 0.0264709 3.46945e-18 0.211829
0.075776 0.031113 -3.46945e-18 0.211047
0.075776 0.0359237 -3.46945e-18 0.210227
0 0.0845169 0 0.203345
0.075776 0.0409092 0 0.209383
0.075776 0.0460755 -3.46945e-18 0.208525
0 0.0912666 0 0.202611
0.075776 0.0514296 -3.46945e-18 0.207662
0.075776 0.0569779 0 0.206798
0 0.0982613 0 0.201863
0.075776 0.0627278 0 0.205952
0.075776 0.0686863 0 0.205157
0 0.10551 0 0.201104
0.075776 0.0748612 3.46945e-18 0.204424
0.075776 0.0812603 -3.46945e-18 0.203709
0 0.113022 0 0.200333
0.075776 0.0878918 3.46945e-18 0.202981
0 0.120806 0 0.199547
0.075776 0.0947639 3.46945e-18 0.202239
0.075776 0.101886 -3.46945e-18 0.201486
0 0.128874 0 0.198752
0.075776 0.109266 3.46945e-18 0.200722
0 0.137234 0 0.197965
0.075776 0.116914 3.46945e-18 0.199943
0 0.145897 0 0.197206
0.075776 0.12484 0 0.19915
0.151552 0 0 0.199653
0.151552 0.00368111 0 0.199538
0.151552 0.00749587 0 0.19932
0.151552 0.0114491 0 0.199152
0.151552 0.0155459 0 0.199016
0.151552 0.0197915 0 0.198856
0.075776 0.133054 0 0.198353
0.151552 0.0241911 0 0.198654
0.151552 0.0287506 0 0.198413
0 0.154876 0 0.196481
0.151552 0.0334755 0 0.198142
0.151552 0.038372 0 0.197852
0.151552 0.0434463 0 0.197547
0.151552 0.0487048 0 0.197233
0.075776 0.141566 0 0.197577
0.151552 0.0541543 0 0.196912
0.151552 0.0598016 0 0.196589
0 0.16418 0 0.195787
0.151552 0.0656539 0 0.196276
0.151552 0.0717187 0 0.195983
0.075776 0.150387 0 0.196835
0.151552 0.0780037 0 0.1957
0.151552 0.0845169 0 0.195409
0 0.173822 0 0.195124
0.075776 0.159528 0 0.196126
0.151552 0.0912666 0 0.195103
0.151552 0.0982613 0 0.194781
0 0.183814 0 0.194497
0.151552 0.10551 0 0.194446
0.075776 0.169001 3.46945e-18 0.195447
0.151552 0.113022 0 0.194095
0.151552 0.120806 0 0.193727
0 0.194169 0 0.193912
0.075776 0.178818 3.46945e-18 0.1948
0.151552 0.128874 0 0.193344
0.075776 0.188992 3.46945e-18 0.194195
0.151552 0.137234 0 0.192953
0 0.2049 0 0.193346
0.151552 0.145897 0 0.192567
0.075776 0.199535 0 0.19363
0 0.21602 0 0.192753
0.151552 0.154876 0 0.192189
0.219992 0.00184055 0 0.184915
0.219992 0.00558849 0 0.185021
0.219992 0.00947248 -3.46945e-18 0.185267
0.219992 0.0134975 3.46945e-18 0.185539
0.219992 0.0176687 0 0.185795
0.219992 0.0219913 0 0.18604
0.219993 0.0264709 -3.46945e-18 0.186277
0.219992 0.031113 -3.46945e-18 0.186502
0.219992 0.0359238 3.46945e-18 0.186715
0.151552 0.16418 0 0.191817
0.075776 0.21046 0 0.193062
0.219992 0.0409092 3.46945e-18 0.18692
0.219992 0.0460755 0 0.187115
0.219993 0.0514296 -3.46945e-18 0.1873
0.219992 0.0569779 0 0.187475
0 0.227544 0 0.192105
0.219992 0.0627277 3.46945e-18 0.187637
0.219992 0.0686863 0 0.187785
0.151552 0.173822 0 0.191449
0.219992 0.0748612 3.46945e-18 0.187918
0.075776 0.221782 0 0.192444
0.219992 0.0812603 3.46945e-18 0.188034
0.219992 0.0878917 -3.46945e-18 0.188132
0.151552 0.183814 0 0.191085
7.47806e-17 0.239487 0 0.191408
0.219992 0.0947639 3.46945e-18 0.188212
0.219993 0.101886 3.46945e-18 0.188275
0.075776 0.233516 0 0.191766
0.219993 0.109266 0 0.188322
0.151552 0.194169 0 0.190728
0.219993 0.116914 0 0.188351
0 0.251863 0 0.190683
0.219993 0.12484 0 0.188358
0.151552 0.2049 0 0.190366
0.075776 0.245675 0 0.19105
0.219992 0.133054 3.46945e-18 0.188344
0.219992 0.141565 0 0.188309
0.151552 0.21602 0 0.189977
0 0.264688 0 0.189943
0.219992 0.150387 3.46945e-18 0.188258
0.075776 0.258275 3.46945e-18 0.190316
0.219992 0.159528 -3.46945e-18 0.188194
0.151552 0.227544 0 0.189545
0.219992 0.169001 3.46945e-18 0.18811
0 0.27798 0 0.189187
0.075776 0.271334 3.46945e-18 0.189569
0.151552 0.239487 3.70071e-18 0.189074
0.219992 0.178818 3.46945e-18 0.188002
0.288433 0 0 0.188867
0.288433 0.00368111 0 0.188905
0.288433 0.00749587 0 0.189023
0.288433 0.0114491 0 0.189193
0.288433 0.0155459 3.70071e-18 0.189372
0.288433 0.0197915 0 0.189547
0.288433 0.0241911 3.70071e-18 0.18972
0.288433 0.0287506 0 0.18989
0.219992 0.188991 0 0.187867
0.288433 0.0334755 0 0.190054
0.288433 0.038372 0 0.190213
0.288433 0.0434463 0 0.190367
7.47806e-17 0.291753 0 0.188413
0.288433 0.0487048 0 0.190515
0.288433 0.0541543 0 0.190655
0.151552 0.251863 0 0.188573
0.288433 0.0598016 3.70071e-18 0.190788
0.075776 0.284866 0 0.188805
0.288433 0.0656539 3.70071e-18 0.190913
0.219992 0.199534 0 0.187708
0.288433 0.0717187 0 0.19103
0.288433 0.0780037 0 0.19114
0.288433 0.0845169 0 0.191241
0.288433 0.0912666 0 0.191327
0.219992 0.21046 -3.46945e-18 0.187521
0.288433 0.0982613 0 0.19139
0.151552 0.264688 3.70071e-18 0.188049
0 0.306027 0 0.187614
0.288433 0.10551 0 0.191431
0.075776 0.29889 3.46945e-18 0.18802
0.288433 0.113022 0 0.19145
0.219993 0.221782 0 0.187305
0.288433 0.120806 0 0.191454
0.288433 0.128874 0 0.191444
0.151552 0.27798 0 0.187506
0.288433 0.137234 0 0.191423
0 0.320819 0 0.186782
0.219992 0.233515 -3.46945e-18 0.187058
0.075776 0.313423 -3.46945e-18 0.187208
0.288433 0.145897 0 0.191385
0.288433 0.154876 0 0.191329
0.151552 0.291753 0 0.186942
0.219993 0.245675 0 0.186779
0.288433 0.16418 0 0.191253
0 0.336148 0 0.185923
0.288433 0.173822 0 0.191155
0.075776 0.328484 -3.46945e-18 0.186355
0.219993 0.258275 -3.46945e-18 0.186468
0.151552 0.306027 0 0.186351
0.288433 0.183814 0 0.191034
0.288433 0.194169 0 0.190888
0.219992 0.271334 3.46945e-18 0.186131
0.350249 0.00184056 -3.46945e-18 0.192529
0.350249 0.00558849 0 0.192575
0.350249 0.00947248 3.46945e-18 0.192657
0.350249 0.0134975 0 0.192753
0.350249 0.0176687 0 0.192855
0.350249 0.0219913 0 0.192964
0.350249 0.0264708 3.46945e-18 0.193077
0.350249 0.031113 0 0.193189
0 0.352034 0 0.185074
0.350249 0.0359238 0 0.193303
0.075776 0.344091 0 0.18549
0.350249 0.0409091 0 0.193416
0.350249 0.0460756 3.46945e-18 0.193526
0.288433 0.2049 0 0.190716
0.350249 0.0514296 0 0.193632
0.151552 0.320819 0 0.185722
0.350249 0.0569779 0 0.193734
0.350249 0.0627277 3.46945e-18 0.193831
0.350249 0.0686863 3.46945e-18 0.193927
0.350249 0.0748612 3.46945e-18 0.194024
0.350249 0.0812603 0 0.19412
0.219992 0.284867 0 0.185775
0.288433 0.21602 0 0.190517
0.350249 0.0878917 0 0.194213
0.350249 0.094764 0 0.194286
0.350249 0.101886 0 0.194327
0.350249 0.109266 0 0.194339
0.288433 0.227544 0 0.190288
0.075776 0.360265 3.46945e-18 0.184657
0 0.368496 0 0.184243
0.151552 0.336148 0 0.185055
0.350249 0.116914 3.46945e-18 0.194333
0.219992 0.29889 0 0.185394
0.370854 0.0241911 1.54074e-33 0.195399
0.350249 0.12484 0 0.194319
0.350249 0.133054 0 0.194304
0.288433 0.239487 -9.25154e-19 0.190029
0.350249 0.141566 3.46945e-18 0.194281
0.350249 0.150387 3.46945e-18 0.194238
0.288433 0.251863 0 0.189737
0.219992 0.313423 0 0.184975
0.151552 0.352034 0 0.184366
0.075776 0.377027 0 0.183828
0.350249 0.159528 0 0.194171
0 0.385557 0 0.183385
0.350249 0.169001 0 0.194083
0.288433 0.264688 0 0.189413
0.350249 0.178818 0 0.193973
0.219992 0.328484 0 0.18451
0.350249 0.188992 0 0.19384
0.151552 0.368496 0 0.183662
0.288433 0.27798 3.70071e-18 0.189061
0.075776 0.394397 0 0.182942
0.350249 0.199535 0 0.193683
7.47806e-17 0.403236 0 0.182466
0.219992 0.344091 0 0.183994
0.350249 0.21046 -3.46945e-18 0.193499
0.288433 0.291753 0 0.188681
0.412065 9.08189e-19 3.08149e-33 0.197908
0.412065 0.00368111 -2.31298e-18 0.197924
0.412065 0.00749587 -2.31298e-18 0.197969
0.412065 0.0114491 -2.31298e-18 0.19803
0.412065 0.0155459 -2.31298e-18 0.198097
0.412065 0.0197915 0 0.198166
0.412065 0.0241911 -3.08149e-33 0.198238
0.412065 0.0264709 0 0.198274
0.412065 0.0287506 -2.31298e-18 0.198311
0.412065 0.0334755 -2.31298e-18 0.198386
0.412065 0.038372 -2.31298e-18 0.198464
0.151552 0.385557 0 0.182923
0.412065 0.0434463 0 0.198542
0.350249 0.221782 0 0.193288
0.412065 0.0487048 0 0.198621
0.412065 0.0541543 -3.08149e-33 0.1987
0.412065 0.0569779 0 0.198738
0.412065 0.0598016 -2.31298e-18 0.198777
0.412065 0.0656539 -2.31298e-18 0.198852
0.412065 0.0717187 -2.31298e-18 0.198925
0.075776 0.412396 -3.46945e-18 0.181988
0.412065 0.0780037 -2.31298e-18 0.198991
0.288433 0.306027 0 0.188267
0.412065 0.0845169 -2.31298e-18 0.199045
0.350249 0.233516 3.46945e-18 0.193047
0 0.421557 0 0.181487
0.412065 0.0912666 -2.31298e-18 0.199077
0.219992 0.360265 3.46945e-18 0.18343
0.412065 0.0982613 0 0.199083
0.412065 0.10551 0 0.199065
0.412065 0.113022 -2.31298e-18 0.199032
0.350249 0.245675 0 0.192775
0.412065 0.120806 0 0.198986
0.151552 0.403236 0 0.182129
0.288433 0.320819 0 0.187814
0.412065 0.128874 -2.31298e-18 0.19893
0.412065 0.137234 0 0.198865
0.350249 0.258275 -3.46945e-18 0.19247
0.219992 0.377026 0 0.182822
0.412065 0.145897 -2.31298e-18 0.198787
0.075776 0.431051 0 0.180984
0.412065 0.154876 -2.31298e-18 0.198693
0 0.440544 0 0.180464
0.288433 0.336148 0 0.187315
0.350249 0.271334 0 0.19213
0.412065 0.16418 -2.31298e-18 0.19858
0.412065 0.173822 -2.31298e-18 0.198448
0.151552 0.421557 0 0.18128
0.412065 0.183814 -2.31298e-18 0.198296
0.350249 0.284867 3.46945e-18 0.191756
0.219992 0.394397 0 0.182169
0.288433 0.352034 3.70071e-18 0.186769
0.412065 0.194169 0 0.198123
0.075776 0.450382 0 0.179944
0.412065 0.2049 -2.31298e-18 0.197926
0 0.46022 0 0.179406
0.350249 0.29889 3.46945e-18 0.191348
0.412065 0.21602 0 0.197704
0.151552 0.440544 0 0.180381
0.219993 0.412396 3.46945e-18 0.181467
0.467897 0.00184056 -3.46945e-18 0.202911
0.467897 0.00558849 0 0.202932
0.288433 0.368496 0 0.186175
0.467897 0.00947248 0 0.202966
0.467897 0.0134975 0 0.203003
0.467897 0.0176687 3.46945e-18 0.203039
0.467897 0.0219913 -3.46945e-18 0.203073
0.467897 0.0264709 3.46945e-18 0.203109
0.467897 0.0311131 3.46945e-18 0.203147
0.467897 0.0359238 -3.46945e-18 0.203189
0.467897 0.038372 0 0.203749
0.467897 0.0409092 3.46945e-18 0.203235
0.350249 0.313423 0 0.190903
0.467897 0.0460755 0 0.203285
0.467897 0.0514296 3.46945e-18 0.203339
0.412065 0.227544 -2.31298e-18 0.197455
0.467897 0.0569779 0 0.203395
0.467897 0.0627277 -3.46945e-18 0.203452
0.467897 0.0686863 3.46945e-18 0.203506
0.467897 0.0748612 0 0.203552
0.467897 0.0812603 0 0.203584
0.467897 0.0878918 3.46945e-18 0.203586
0.075776 0.470415 3.46945e-18 0.178868
0.412065 0.239487 -2.31298e-18 0.197177
0.467897 0.0947639 -3.46945e-18 0.203553
0.467897 0.101886 3.46945e-18 0.2035
0.350249 0.328483 0 0.190418
0.467897 0.109266 0 0.203437
0 0.48061 0 0.17831
0.288433 0.385557 0 0.185534
0.467897 0.116914 0 0.203365
0.412065 0.251863 -2.31298e-18 0.196868
0.219992 0.431051 0 0.180711
0.467897 0.12484 0 0.203278
0.151552 0.46022 0 0.179435
0.467897 0.133054 3.46945e-18 0.203177
0.467897 0.141566 3.46945e-18 0.203063
0.412065 0.264688 -2.31298e-18 0.196526
0.350249 0.344091 -3.46945e-18 0.18989
0.467897 0.150387 3.46945e-18 0.202938
0.467897 0.154876 0 0.203502
0.467897 0.159528 3.46945e-18 0.2028
0.288433 0.403236 0 0.184843
0.075776 0.491175 0 0.177752
0.412065 0.27798 -2.31298e-18 0.196149
0.467897 0.169001 0 0.202647
0.467897 0.178818 3.46945e-18 0.202476
0.219992 0.450382 0 0.179897
6.73026e-17 0.501741 3.70071e-18 0.177171
0.350249 0.360265 0 0.189315
0.151552 0.48061 0 0.178442
0.467897 0.188991 0 0.202286
0.412065 0.291753 0 0.195737
0.467897 0.199535 0 0.202076
0.288433 0.421557 0 0.184098
0.467897 0.21046 0 0.201844
0.412065 0.306027 0 0.195286
0.350249 0.377027 0 0.18869
0.467897 0.221782 3.46945e-18 0.201587
0.075776 0.51269 0 0.176589
0.219993 0.470415 3.46945e-18 0.179027
0.467897 0.227544 0 0.20206
0.412065 0.320819 -2.31298e-18 0.194796
0.467897 0.233515 0 0.201303
6.73026e-17 0.523639 3.70071e-18 0.175984
0.523729 0 0 0.208827
0.523729 0.00368111 0 0.208835
0.523729 0.00749587 -2.31298e-18 0.208858
0.523729 0.0114491 0 0.208889
0.523729 0.0155459 0 0.208918
0.523729 0.0197915 -2.31298e-18 0.208943
0.151552 0.501741 0 0.177397
0.523729 0.0241911 0 0.208964
0.523729 0.0287506 0 0.208985
0.523729 0.0334755 0 0.209008
0.523729 0.038372 -3.08149e-33 0.209035
0.523729 0.0434463 0 0.209064
0.523729 0.0487048 0 0.209097
0.523729 0.0541543 0 0.209132
0.288433 0.440544 0 0.183297
0.523729 0.0598016 0 0.20917
0.350249 0.394397 -3.46945e-18 0.188014
0.523729 0.0656539 0 0.209208
0.467897 0.245675 0 0.200991
0.523729 0.0717187 0 0.209242
0.523729 0.0780037 0 0.209262
0.523729 0.0845169 0 0.209251
0.523729 0.0912666 0 0.209205
0.412065 0.336148 0 0.194262
0.523729 0.0982613 0 0.209135
0.523729 0.10551 -2.31298e-18 0.209054
0.467897 0.258275 -3.46945e-18 0.200647
0.523729 0.113022 0 0.208963
0.523729 0.120806 -3.08149e-33 0.20886
0.219993 0.491176 0 0.1781
0.523729 0.12484 0 0.208802
0.523729 0.128874 -2.31298e-18 0.208744
0.075776 0.534986 0 0.175377
0.467897 0.271334 3.46945e-18 0.200271
0.350249 0.412396 -3.46945e-18 0.187283
0.523729 0.137234 0 0.208613
0.412065 0.352034 -2.31298e-18 0.193682
0.288433 0.46022 0 0.182435
0.523729 0.145897 0 0.20847
0.151552 0.523639 0 0.176295
0.523729 0.154876 -3.08149e-33 0.208312
0 0.546332 0 0.174747
0.523729 0.159528 0 0.208225
0.467897 0.284867 -3.46945e-18 0.199858
0.523729 0.16418 -2.31298e-18 0.208138
0.523729 0.173822 0 0.207946
0.412065 0.368496 0 0.193052
0.523729 0.183814 0 0.207735
0.467897 0.29889 0 0.199406
0.350249 0.431051 -3.46945e-18 0.186496
0.219992 0.51269 0 0.177112
0.523729 0.194169 0 0.207504
0.288433 0.48061 0 0.181513
0.523729 0.2049 0 0.207249
0.467897 0.313423 3.46945e-18 0.198914
0.075776 0.558091 0 0.174114
0.412065 0.385557 0 0.19237
0.523729 0.21602 -3.08149e-33 0.20697
0.151552 0.546332 0 0.175132
0 0.569849 0 0.173457
0.350249 0.450382 3.46945e-18 0.185648
0.523729 0.227544 -3.08149e-33 0.206665
0.467897 0.328483 0 0.198378
0.523729 0.231525 1.54074e-33 0.206554
0.574156 0.00184056 0 0.214354
0.574156 0.00558849 0 0.214368
0.574157 0.00947248 0 0.214392
0.574156 0.0134975 -3.46945e-18 0.214419
0.574156 0.0176687 -3.46945e-18 0.214439
0.574156 0.0219913 0 0.214448
0.574156 0.0264708 -3.46945e-18 0.214454
0.574156 0.031113 0 0.214461
0.574156 0.0359238 -3.46945e-18 0.21447
0.574157 0.0409092 0 0.214481
0.523729 0.239487 3.70071e-18 0.206331
0.574156 0.0460755 -3.46945e-18 0.214494
0.574156 0.0514295 0 0.21451
0.412065 0.403236 0 0.191634
0.574157 0.0569779 0 0.21453
0.574156 0.0627277 0 0.214551
0.574156 0.0686863 0 0.214573
0.219992 0.534986 0 0.176054
0.288433 0.501741 0 0.180527
0.574156 0.0748612 3.46945e-18 0.21459
0.574156 0.0812603 0 0.214577
0.467897 0.344091 0 0.197795
0.574156 0.0878917 3.46945e-18 0.214516
0.523729 0.251863 0 0.205967
0.574157 0.0947639 0 0.214426
0.574156 0.101886 0 0.214327
0.574156 0.109266 0 0.21422
0.574156 0.116914 0 0.214102
0.412065 0.416977 -6.16298e-33 0.191039
0.350249 0.470415 0 0.184738
0.523729 0.264688 0 0.20557
0.075776 0.582034 0 0.172796
0.574156 0.12484 0 0.213971
0.574156 0.133054 3.46945e-18 0.213827
0.412065 0.421557 -2.31298e-18 0.19084
0.151552 0.569849 0 0.173904
0.467897 0.360265 -3.46945e-18 0.197164
0.574157 0.141566 -3.46945e-18 0.213669
0.523729 0.27798 0 0.205137
0.574156 0.150386 3.46945e-18 0.213494
0 0.594219 0 0.172109
0.574156 0.159528 -3.46945e-18 0.213303
0.574156 0.16418 0 0.213758
0.288433 0.523639 1.2326e-32 0.179473
0.574157 0.169001 0 0.213094
0.523729 0.291753 0 0.204667
0.219993 0.558091 3.46945e-18 0.174922
0.467897 0.377026 0 0.196481
0.574156 0.178818 3.46945e-18 0.212865
0.412065 0.440544 -2.31298e-18 0.189986
0.350249 0.491175 0 0.183761
0.574156 0.188992 3.46945e-18 0.212615
0.523729 0.306027 -3.08149e-33 0.204157
0.574157 0.199535 0 0.212342
0.574157 0.21046 0 0.212045
0.075776 0.606847 0 0.171418
0.467897 0.394397 0 0.195743
0.151552 0.594219 0 0.172607
0.523729 0.320819 0 0.203604
0.574157 0.221782 -3.46945e-18 0.211721
0.412065 0.46022 3.08149e-33 0.189069
0.288433 0.546332 0 0.178345
0 0.619475 0 0.170698
0.574156 0.233515 3.46945e-18 0.211369
0.350249 0.51269 3.46945e-18 0.182714
0.219992 0.582034 3.46945e-18 0.173713
0.523729 0.336148 0 0.203005
0.467897 0.412396 0 0.194948
0.574156 0.245675 0 0.210987
0.624584 0 0 0.221008
0.624584 0.00368111 0 0.221015
0.624584 0.00749587 0 0.221033
0.624584 0.0114491 0 0.221059
0.624584 0.0155459 0 0.221082
0.624584 0.0197915 0 0.221092
0.624584 0.0241911 -2.31298e-18 0.221093
0.624584 0.0287506 0 0.221089
0.624584 0.0334755 0 0.221086
0.624584 0.038372 0 0.221084
0.624584 0.0434463 -2.31298e-18 0.221084
0.624584 0.0487048 0 0.221085
0.624584 0.0541543 0 0.221088
0.624584 0.0598016 0 0.221091
0.624584 0.0656539 0 0.221095
0.624584 0.0717187 0 0.221093
0.624584 0.0780037 0 0.221068
0.574157 0.258276 3.46945e-18 0.210573
0.624584 0.0845169 0 0.221004
0.523729 0.352034 0 0.202357
0.624584 0.0912666 0 0.220905
0.624584 0.0982613 0 0.220788
0.412065 0.48061 3.08149e-33 0.188085
0.624584 0.10551 0 0.220661
0.624584 0.113022 -2.31298e-18 0.220523
0.574156 0.271334 0 0.210124
0.624584 0.120806 0 0.220371
0.467897 0.431051 0 0.194092
0.075776 0.632561 -3.46945e-18 0.169976
0.624584 0.128874 0 0.220205
0.151552 0.619475 0 0.171239
0.288433 0.569849 0 0.177141
0.350249 0.534985 0 0.181595
0.624584 0.137234 -2.31298e-18 0.220024
0.523729 0.368496 0 0.201658
0.574156 0.284866 -3.46945e-18 0.209638
0.624584 0.145897 0 0.219827
0.467897 0.440544 0 0.194136
0.624584 0.154876 0 0.219612
0.219992 0.606847 -3.46945e-18 0.172425
0 0.645647 0 0.169221
0.624584 0.16418 -3.08149e-33 0.219378
0.574156 0.29889 -3.46945e-18 0.209113
0.624584 0.173822 0 0.219125
0.412065 0.501741 1.54074e-33 0.187031
0.467897 0.450382 -3.46945e-18 0.193173
0.523729 0.385557 0 0.200905
0.624584 0.183814 0 0.218849
0.624584 0.194169 0 0.218551
0.574156 0.313423 0 0.208546
0.624584 0.2049 0 0.218227
0.350249 0.558091 3.46945e-18 0.180399
0.288433 0.594219 0 0.175856
0.624584 0.21602 0 0.217878
0.523729 0.403236 0 0.200094
0.574156 0.328483 -3.46945e-18 0.207934
0.151552 0.645647 0 0.169796
0.467897 0.470415 3.46945e-18 0.192187
0.075776 0.659208 0 0.168464
0.624584 0.227544 0 0.217499
0.412065 0.523639 0 0.185904
0.523729 0.41545 3.08149e-33 0.199513
0.624584 0.239487 3.70071e-18 0.217091
0.574156 0.344091 0 0.207274
0.219992 0.632561 0 0.171056
0.67013 0.00184055 0 0.227256
0.67013 0.00558849 0 0.227269
0.67013 0.00947248 0 0.227291
0.67013 0.0134975 0 0.22732
0.67013 0.0176687 -3.46945e-18 0.227336
0.67013 0.0219913 0 0.227335
0.67013 0.0264708 3.46945e-18 0.227323
0.67013 0.0311131 0 0.227309
0.67013 0.0359237 0 0.227295
0.67013 0.0409092 -3.46945e-18 0.227283
0.67013 0.0460755 0 0.227272
0.67013 0.0514296 3.46945e-18 0.22726
0.523729 0.421557 -2.31298e-18 0.199222
0.67013 0.056978 0 0.227248
0 0.67277 0 0.167672
0.67013 0.0627277 0 0.227236
0.624584 0.251863 0 0.21665
0.67013 0.0686863 0 0.227222
0.67013 0.0748612 3.46945e-18 0.227193
0.67013 0.0812603 0 0.227123
0.67013 0.0878917 0 0.227012
0.67013 0.0947639 3.46945e-18 0.226879
0.574156 0.360265 0 0.206564
0.67013 0.101886 0 0.226736
0.523729 0.431051 0 0.198754
0.624584 0.264688 0 0.216174
0.467897 0.491175 0 0.191131
0.67013 0.109266 3.46945e-18 0.226581
0.350249 0.582034 0 0.179123
0.67013 0.116914 0 0.226411
0.67013 0.12484 0 0.226227
0.67013 0.133054 0 0.226027
0.288433 0.619475 0 0.174489
0.624584 0.27798 -3.08149e-33 0.215662
0.412065 0.546332 1.54074e-33 0.1847
0.523729 0.440544 -3.08149e-33 0.198286
0.67013 0.141566 3.46945e-18 0.22581
0.685312 0.0241911 -7.70372e-34 0.230049
0.685312 0.0434463 -7.70372e-34 0.229972
0.67013 0.150387 0 0.225574
0.574156 0.377026 -3.46945e-18 0.205799
0.67013 0.159528 0 0.22532
0.624584 0.291753 0 0.21511
0.151552 0.67277 0 0.168273
0.075776 0.686823 0 0.166877
0.67013 0.169001 0 0.225045
0.67013 0.178818 0 0.224747
0.467897 0.51269 0 0.190001
0.685312 0.113022 -7.70372e-34 0.229086
0.219992 0.659208 0 0.169602
0.624584 0.306027 0 0.214517
0.67013 0.188991 0 0.224427
0.574156 0.394397 3.46945e-18 0.204977
0.523729 0.46022 0 0.197283
0.685312 0.137234 -7.70372e-34 0.228471
0.67013 0.199535 -3.46945e-18 0.224081
0.350249 0.606847 0 0.177763
0 0.700877 0 0.166047
0.624584 0.320819 0 0.213879
0.67013 0.21046 0 0.223709
0.412065 0.569849 -2.31298e-18 0.183414
0.67013 0.221782 -3.46945e-18 0.223308
0.574157 0.412396 0 0.204095
0.288433 0.645647 0 0.173035
0.624584 0.336148 -3.08149e-33 0.213193
0.67013 0.233515 3.46945e-18 0.222877
0.467897 0.534986 0 0.188794
0.523729 0.48061 0 0.196209
0.624584 0.344091 0 0.212825
0.67013 0.245675 0 0.222413
0.715676 4.54095e-19 0 0.234471
0.715676 0.00368111 0 0.234477
0.715676 0.00749587 0 0.234494
0.715676 0.0114491 0 0.234519
0.715676 0.0155459 0 0.23454
0.715676 0.0197915 0 0.234543
0.715676 0.0241911 0 0.234527
0.715676 0.0287506 0 0.234502
0.715676 0.0334755 0 0.234474
0.715676 0.038372 0 0.234445
0.624584 0.352034 -2.31298e-18 0.212457
0.715676 0.0434463 0 0.234416
0.151552 0.700877 0 0.166667
0.715676 0.0487048 0 0.234386
0.715676 0.0541543 0 0.234356
0.574156 0.43105 0 0.203148
0.715676 0.0598016 0 0.234325
0.67013 0.258275 0 0.221915
0.715676 0.0656539 0 0.234292
0.715676 0.0717187 0 0.234246
0.075776 0.715441 0 0.165213
0.715676 0.0780037 0 0.234168
0.715676 0.0845169 0 0.234048
0.219992 0.686824 0 0.168059
0.715676 0.0912666 0 0.2339
0.715676 0.0982613 0 0.233736
0.67013 0.271334 -3.46945e-18 0.22138
0.350249 0.632561 -3.46945e-18 0.176316
0.412065 0.594219 3.08149e-33 0.182043
0.715676 0.10551 0 0.233559
0.715676 0.113022 0 0.233368
0.624584 0.368496 0 0.211668
0.523729 0.501741 0 0.19506
0.715676 0.120806 0 0.23316
0.715676 0.128874 0 0.232936
0.67013 0.284867 0 0.220806
0.467897 0.558091 3.46945e-18 0.187506
0.715676 0.137234 0 0.232695
0.574156 0.450382 0 0.202134
0 0.730005 0 0.164341
0.715676 0.145897 0 0.232434
0.288433 0.67277 0 0.17149
0.715676 0.154876 0 0.232154
0.67013 0.29889 0 0.220191
0.624584 0.385557 0 0.210821
0.715676 0.16418 -9.25187e-19 0.231852
0.715676 0.173822 0 0.231528
0.715676 0.183814 0 0.231179
0.67013 0.313423 0 0.219531
0.523729 0.523639 0 0.193833
0.715676 0.194169 0 0.230805
0.574156 0.470415 3.46945e-18 0.201048
0.624584 0.403236 0 0.209913
0.743101 0.0241911 -7.70372e-34 0.239331
0.412065 0.619475 3.08149e-33 0.180583
0.715676 0.2049 0 0.230404
0.151552 0.730005 0 0.164974
0.67013 0.328484 3.46945e-18 0.218825
0.350249 0.659208 0 0.174777
0.467897 0.582034 0 0.186131
0.715676 0.21602 0 0.229974
0.219992 0.715441 0 0.166426
0.075776 0.745097 -3.46945e-18 0.163464
0.715676 0.227544 0 0.229513
0.67013 0.344091 0 0.218068
0.624584 0.421557 0 0.208942
0.743101 0.128874 -7.70372e-34 0.237446
0.715676 0.239487 3.70071e-18 0.22902
0.574156 0.491175 0 0.199887
0.756814 0.00184055 0 0.241278
0.523729 0.546332 0 0.192522
0.756813 0.00558849 0 0.24129
0.756813 0.00947248 0 0.241312
0.756814 0.0134975 -3.46945e-18 0.24134
0.756814 0.0155459 0 0.241759
0.756814 0.0176687 0 0.241351
0.756814 0.0219913 0 0.241336
0.756814 0.0264709 0 0.241304
0.756814 0.031113 -3.46945e-18 0.241263
0.756813 0.0359238 -3.46945e-18 0.24122
0.288433 0.700877 0 0.169852
0.756814 0.0409092 -3.46945e-18 0.241175
0.756813 0.0460755 3.46945e-18 0.241129
0.756813 0.0514296 0 0.241082
0.715676 0.251863 0 0.228492
0.756813 0.0569779 0 0.241033
0.756814 0.0627277 -3.46945e-18 0.240983
0.756814 0.0686863 -3.46945e-18 0.240929
0 0.76019 0 0.162548
0.756814 0.0748612 0 0.240849
0.67013 0.360265 3.46945e-18 0.217257
0.756814 0.0812603 -3.46945e-18 0.24072
0.756814 0.0878917 -3.46945e-18 0.240554
0.756814 0.0947639 -3.46945e-18 0.240371
0.715676 0.264688 0 0.227928
0.756813 0.101886 0 0.240176
0.624584 0.440544 0 0.207902
0.756813 0.109266 3.46945e-18 0.239966
0.756813 0.116914 3.46945e-18 0.239739
0.412065 0.645647 0 0.179029
0.467897 0.606847 0 0.184666
0.756814 0.120806 0 0.23996
0.756813 0.12484 0 0.239495
0.715676 0.27798 0 0.227324
0.756814 0.133054 -3.46945e-18 0.239232
0.67013 0.377026 -3.46945e-18 0.216391
0.756814 0.137234 0 0.239423
0.574156 0.51269 0 0.198646
0.756813 0.141566 3.46945e-18 0.238949
0.685312 0.352034 -7.70372e-34 0.219904
0.743101 0.2049 -7.70372e-34 0.234699
0.350249 0.686824 0 0.173142
0.756814 0.150387 0 0.238646
0.756814 0.154876 0 0.238806
0.715676 0.291753 0 0.226678
0.756814 0.159528 -3.46945e-18 0.238321
0.523729 0.569849 0 0.191124
0.72743 0.264688 0 0.229701
0.756814 0.16418 0 0.238464
0.151552 0.76019 0 0.163189
0.756813 0.169001 3.46945e-18 0.237973
0.624584 0.46022 0 0.206791
0.219993 0.745097 0 0.164697
0.67013 0.394396 0 0.215464
0.756813 0.178818 -3.46945e-18 0.237601
0.715676 0.306027 0 0.225989
0.075776 0.775831 0 0.161628
0.756813 0.188991 0 0.237202
0.756814 0.199535 0 0.236776
0.715676 0.320819 0 0.225252
0.574156 0.534985 0 0.197322
0.288433 0.730005 0 0.168116
0.756813 0.21046 0 0.236321
0.467897 0.632561 0 0.183106
0.67013 0.412396 -3.46945e-18 0.214473
0.624584 0.48061 -3.08149e-33 0.205604
0.756814 0.221782 0 0.235835
0.412065 0.67277 3.08149e-33 0.177378
0.715676 0.336148 0 0.224466
0 0.791472 0 0.160666
0.756813 0.233516 3.46945e-18 0.235316
0.523729 0.594219 0 0.189634
0.624584 0.487654 1.54074e-33 0.205182
0.756814 0.245675 3.46945e-18 0.234762
0.350249 0.715441 3.46945e-18 0.171407
0.67013 0.43105 0 0.213414
0.715676 0.352034 -9.25187e-19 0.223627
0.797951 9.08189e-19 -3.08149e-33 0.248911
0.797951 0.00368111 2.31298e-18 0.248917
0.797951 0.00749587 2.31298e-18 0.248935
0.797951 0.0114491 2.31298e-18 0.24896
0.797951 0.0141803 7.70372e-34 0.248972
0.797951 0.0155459 0 0.248978
0.797951 0.0169611 7.70372e-34 0.248975
0.797951 0.0197915 2.31298e-18 0.248971
0.797951 0.0219913 0 0.248955
0.797951 0.0241911 3.08149e-33 0.248938
0.797951 0.0264709 0 0.248913
0.797951 0.0287506 -3.08149e-33 0.248887
0.797951 0.0334755 2.31298e-18 0.248827
0.797951 0.038372 2.31298e-18 0.248762
0.797951 0.0434463 2.31298e-18 0.248694
0.797951 0.0487048 0 0.248622
0.756813 0.258275 -3.46945e-18 0.234172
0.797951 0.0541543 2.31298e-18 0.248549
0.797951 0.0598016 2.31298e-18 0.248472
0.797951 0.0656539 2.31298e-18 0.24839
0.574156 0.55809 0 0.195909
0.624584 0.501741 0 0.204337
0.797951 0.0717187 2.31298e-18 0.248289
0.797951 0.0780037 -3.08149e-33 0.248147
0.797951 0.0845169 2.31298e-18 0.247964
0.797951 0.0912666 -3.08149e-33 0.247756
0.797951 0.0982613 2.31298e-18 0.247532
0.756813 0.271334 0 0.233542
0.797951 0.10551 2.31298e-18 0.247292
0.715676 0.368496 0 0.222731
0.151552 0.791472 0 0.161309
0.797951 0.113022 2.31298e-18 0.247035
0.219992 0.775831 3.46945e-18 0.16287
0.797951 0.118211 7.70372e-34 0.246852
0.770526 0.239487 1.54074e-33 0.237427
0.797951 0.120806 0 0.24676
0.67013 0.450382 3.46945e-18 0.212284
0.797951 0.128874 3.08149e-33 0.246466
0.467897 0.659208 0 0.181447
0.756813 0.284866 -3.46945e-18 0.232871
0.743101 0.320819 -7.70372e-34 0.229256
0.797951 0.137234 0 0.246151
0.797951 0.141566 0 0.245983
0.797951 0.145897 -9.25187e-19 0.245815
0.523729 0.619475 0 0.188048
0.075776 0.807681 0 0.159698
0.797951 0.150387 0 0.245637
0.797951 0.154876 0 0.245458
0.715676 0.385557 0 0.221776
0.412065 0.700877 3.08149e-33 0.175624
0.288433 0.76019 0 0.166278
0.756813 0.29889 0 0.232156
0.797951 0.16418 0 0.245076
0.624584 0.523639 0 0.202984
0.797951 0.167394 7.70372e-34 0.244941
0.797951 0.173822 2.31298e-18 0.24467
0.574156 0.582034 0 0.194403
0.67013 0.470415 0 0.211078
0.797951 0.183814 2.31298e-18 0.244238
0.756813 0.313423 -3.46945e-18 0.231395
0.797951 0.194169 -9.25187e-19 0.243778
0.715676 0.403236 0 0.220756
0.151552 0.807681 0 0.160319
0.797951 0.197746 -7.70372e-34 0.243615
0.350249 0.745097 0 0.169569
0.797951 0.2049 3.08149e-33 0.243289
0 0.823889 0 0.158688
0.756813 0.328483 -3.46945e-18 0.230584
0.797951 0.21046 0 0.243029
0.797951 0.21602 -3.08149e-33 0.242769
0.797951 0.223703 7.70372e-34 0.242401
0.797951 0.227544 9.25187e-19 0.242217
0.624584 0.546332 0 0.201543
0.715676 0.421557 0 0.21967
0.67013 0.491176 -3.46945e-18 0.209791
0.797951 0.231525 7.70372e-34 0.242021
0.467897 0.686824 -3.46945e-18 0.179683
0.523729 0.645647 0 0.186359
0.756813 0.344091 -3.46945e-18 0.22972
0.822721 0.120806 7.70372e-34 0.251439
0.797951 0.239487 -3.08149e-33 0.24163
0.822721 0.137234 7.70372e-34 0.250778
0.835106 0.00184056 0 0.25615
0.835106 0.00558849 0 0.256163
0.835106 0.00947248 0 0.256186
0.835106 0.0134975 0 0.256213
0.835107 0.0176687 0 0.25622
0.835106 0.0219913 -3.46945e-18 0.256191
0.574156 0.606847 3.46945e-18 0.192799
0.835106 0.0241911 0 0.256407
0.835106 0.0264709 -3.46945e-18 0.256136
0.822721 0.145897 -7.70372e-34 0.250415
0.835106 0.031113 3.46945e-18 0.256062
0.835106 0.0359238 3.46945e-18 0.25598
0.835106 0.0409092 -3.46945e-18 0.255893
0.835106 0.0460755 3.46945e-18 0.2558
0.835106 0.0514296 0 0.255704
0.797951 0.251863 -3.08149e-33 0.241007
0.835106 0.0541543 0 0.255893
0.835106 0.0569779 0 0.255604
0.219992 0.807681 3.46945e-18 0.160941
0.822721 0.154876 7.70372e-34 0.250029
0.835106 0.0627277 0 0.2555
0.151552 0.823889 0 0.159328
0.797951 0.255069 -1.54074e-33 0.240841
0.835106 0.0686863 3.46945e-18 0.255383
0.756814 0.360265 -3.46945e-18 0.2288
0.412065 0.730005 0 0.173763
0.835106 0.0748612 0 0.255232
0.822721 0.16418 7.70372e-34 0.249619
0.835106 0.0812603 0 0.255032
0.835106 0.0878917 -3.46945e-18 0.254799
0.715676 0.440544 0 0.218511
0.835106 0.094764 0 0.25455
0.797951 0.264688 -1.2326e-32 0.240345
0.835106 0.101886 -3.46945e-18 0.254284
0.835106 0.109266 3.46945e-18 0.254
0.288433 0.791472 0 0.164335
0.835106 0.116914 0 0.253698
0.67013 0.51269 3.46945e-18 0.208419
0.797951 0.274657 6.16298e-33 0.239818
0.075776 0.840686 -3.46945e-18 0.157672
0.835106 0.12484 0 0.253375
0.797951 0.27798 -3.08149e-33 0.239642
0.624584 0.569849 0 0.200006
0.756813 0.377026 -3.46945e-18 0.227821
0.835106 0.133054 3.46945e-18 0.253032
0.835106 0.141565 3.46945e-18 0.252667
0.835106 0.150386 0 0.252279
0.797951 0.291753 0 0.238896
0.835106 0.159528 3.46945e-18 0.251868
0.715676 0.46022 0 0.217277
0.816529 0.239487 -1.54074e-33 0.244874