# pMean  POINT_DATA 63840
# x  y  z  pMean
0 0.5 3.39583e-17 0.177265
0 0.5 -0.00617931 0.177392
0 0.5 0.00617931 0.177142
0.0124865 0.5 -0.00617931 0.177392
0.0124865 0.5 0.00617931 0.177142
0 0.5 -0.0688207 0.178433
0 0.5 0.0688207 0.175648
0.0124865 0.5 -0.0688207 0.178433
0.0124865 0.5 0.0688207 0.175648
0 0.5 -0.075 0.178512
0 0.5 0.075 0.175476
0 0.5 -0.0811793 0.178595
0 0.5 0.0811793 0.175308
0.0124865 0.5 -0.0811793 0.178595
0.0124865 0.5 0.0811793 0.175308
0.075776 0.5 -0.0375 0.178033
0.075776 0.5 0.0375 0.176517
0.075776 0.5 -0.1125 0.179011
0.075776 0.5 0.1125 0.174455
0 0.5 -0.143821 0.179195
0 0.5 0.143821 0.173378
0.0124865 0.5 -0.143821 0.179195
0.0124865 0.5 0.143821 0.173378
0 0.5 -0.15 0.17923
0 0.5 0.15 0.173164
0.151149 0.5 -0.00137318 0.17743
0 0.5 -0.156179 0.17927
0 0.5 0.156179 0.172954
0.0124865 0.5 -0.156179 0.17927
0.0124865 0.5 0.156179 0.172954
0.151149 0.5 0.075 0.175674
0.151149 0.5 -0.075 0.17875
0.075776 0.5 -0.1875 0.179469
0.075776 0.5 0.1875 0.171892
0.151149 0.5 0.15 0.173341
0.151149 0.5 -0.15 0.179479
0 0.5 -0.218821 0.179421
0 0.5 0.218821 0.170616
0.0124865 0.5 -0.218821 0.179421
0.0124865 0.5 0.218821 0.170616
0.219992 0.5 0.0375 0.176911
0.219993 0.5 -0.0375 0.178479
0 0.5 -0.225 0.179412
0 0.5 0.225 0.170363
0 0.5 -0.231179 0.179405
0 0.5 0.231179 0.170113
0.0124865 0.5 -0.231179 0.179405
0.0124865 0.5 0.231179 0.170113
0.219992 0.5 0.1125 0.174819
0.219993 0.5 -0.1125 0.179479
0.151149 0.5 -0.225 0.179667
0.151149 0.5 0.225 0.17051
0.075776 0.5 -0.2625 0.179373
0.075776 0.5 0.2625 0.168852
0.288069 0.5 -0.00137318 0.180519
0.219992 0.5 0.1875 0.172205
0.219993 0.5 -0.1875 0.179956
0 0.5 0.293821 0.167392
0 0.5 -0.293821 0.179099
0.0124865 0.5 -0.293821 0.179099
0.0124865 0.5 0.293821 0.167392
0.288069 0.5 -0.075 0.181921
0.288069 0.5 0.075 0.178682
0 0.5 -0.3 0.179044
0 0.5 0.3 0.167103
0 0.5 0.306179 0.166817
0 0.5 -0.306179 0.178993
0.0124865 0.5 -0.306179 0.178993
0.0124865 0.5 0.306179 0.166817
0.288069 0.5 -0.15 0.182663
0.288069 0.5 0.15 0.176205
0.151149 0.5 -0.3 0.179293
0.151149 0.5 0.3 0.167216
0.219992 0.5 -0.2625 0.179869
0.219992 0.5 0.2625 0.1691
0.075776 0.5 0.3375 0.165372
0.075776 0.5 -0.3375 0.178734
0.350249 0.5 -0.0375 0.184171
0.350249 0.5 0.0375 0.182491
0.288069 0.5 -0.225 0.182817
0.288069 0.5 0.225 0.173197
0.350249 0.5 0.1125 0.180186
0.350249 0.5 -0.1125 0.185222
0 0.5 0.368821 0.163746
0 0.5 -0.368821 0.178249
0.0124865 0.5 -0.368821 0.178249
0.0124865 0.5 0.368821 0.163746
0 0.5 -0.375 0.178153
0 0.5 0.375 0.163424
0 0.5 -0.381179 0.17806
0 0.5 0.381179 0.163105
0.0124865 0.5 -0.381179 0.17806
0.0124865 0.5 0.381179 0.163105
0.350249 0.5 -0.1875 0.185659
0.350249 0.5 0.1875 0.177305
0.219992 0.5 -0.3375 0.179196
0.219992 0.5 0.3375 0.165554
0.151149 0.5 -0.375 0.178384
0.151149 0.5 0.375 0.1635
0.411736 0.5 -0.00137318 0.187015
0.288069 0.5 -0.3 0.182364
0.288069 0.5 0.3 0.169696
0.411736 0.5 -0.075 0.188518
0.411736 0.5 0.075 0.18502
0.075776 0.5 -0.4125 0.177591
0.075776 0.5 0.4125 0.161493
0.350249 0.5 -0.2625 0.185454
0.350249 0.5 0.2625 0.173891
0.411736 0.5 -0.15 0.189263
0.411736 0.5 0.15 0.182297
0 0.5 -0.443821 0.176903
0 0.5 0.443821 0.159718
0.0124865 0.5 -0.443821 0.176903
0.0124865 0.5 0.443821 0.159718
0 0.5 -0.45 0.176766
0 0.5 0.45 0.159367
0 0.5 -0.456179 0.176633
0 0.5 0.456179 0.159019
0.0124865 0.5 -0.456179 0.176633
0.0124865 0.5 0.456179 0.159019
0.219992 0.5 -0.4125 0.178015
0.219993 0.5 0.4125 0.1616
0.411736 0.5 -0.225 0.189332
0.411736 0.5 0.225 0.178973
0.467897 0.5 0.0375 0.189757
0.467897 0.5 -0.0375 0.191578
0.288069 0.5 -0.375 0.181336
0.288069 0.5 0.375 0.165744
0.151149 0.5 -0.45 0.176974
0.151149 0.5 0.45 0.159403
0.467897 0.5 -0.1125 0.192684
0.467897 0.5 0.1125 0.187247
0.350249 0.5 0.3375 0.169973
0.350249 0.5 -0.3375 0.184617
0.075776 0.5 -0.4875 0.17596
0.075776 0.5 0.4875 0.157258
0.467897 0.5 -0.1875 0.193072
0.467897 0.5 0.1875 0.184066
0.411736 0.5 -0.3 0.188725
0.411736 0.5 0.3 0.175095
0 0.5 -0.518821 0.175084
0 0.5 0.518821 0.155355
0.0124865 0.5 0.518821 0.155355
0.0124865 0.5 -0.518821 0.175084
0.523432 0.5 -0.00137318 0.195039
0 0.5 -0.525 0.174911
0 0.5 0.525 0.154978
0.523432 0.5 -0.075 0.19666
0.523432 0.5 0.075 0.192858
0 0.5 -0.531179 0.17474
0 0.5 0.531179 0.154604
0.0124865 0.5 -0.531179 0.17474
0.0124865 0.5 0.531179 0.154604
0.288069 0.5 -0.45 0.179775
0.288069 0.5 0.45 0.161391
0.219992 0.5 -0.4875 0.176335
0.219993 0.5 0.4875 0.157286
0.467897 0.5 -0.2625 0.192733
0.467897 0.5 0.2625 0.180266
0.350249 0.5 -0.4125 0.183209
0.350249 0.5 0.4125 0.165609
0.523432 0.5 -0.15 0.197411
0.523432 0.5 0.15 0.189852
0.151149 0.5 -0.525 0.175091
0.151149 0.5 0.525 0.154972
0.411736 0.5 -0.375 0.187476
0.411736 0.5 0.375 0.170715
0.075776 0.5 -0.5625 0.17388
0.075776 0.5 0.5625 0.152714
0.523432 0.5 -0.225 0.197387
0.523432 0.5 0.225 0.186157
0.574156 0.5 -0.0375 0.200373
0.574156 0.5 0.0375 0.198382
0.467897 0.5 0.3375 0.175911
0.467897 0.5 -0.3375 0.191693
0.574156 0.5 -0.1125 0.201542
0.574156 0.5 0.1125 0.195602
0 0.5 -0.593821 0.172832
0 0.5 0.593821 0.150702
0.0124865 0.5 -0.593821 0.172832
0.0124865 0.5 0.593821 0.150702
0.288069 0.5 -0.525 0.177711
0.288069 0.5 0.525 0.15669
0 0.5 -0.6 0.172624
0 0.5 0.6 0.150304
0.350249 0.5 -0.4875 0.181249
0.350249 0.5 0.4875 0.160856
0.523432 0.5 -0.3 0.196602
0.523432 0.5 0.3 0.181831
0.219992 0.5 -0.5625 0.174196
0.219992 0.5 0.5625 0.152658
0.574156 0.5 -0.1875 0.201882
0.574156 0.5 0.1875 0.192068
0 0.5 -0.606179 0.172419
0 0.5 0.606179 0.149909
0.0124865 0.5 -0.606179 0.172419
0.0124865 0.5 0.606179 0.149909
0.411736 0.5 -0.45 0.185627
0.411736 0.5 0.45 0.16589
0.151149 0.5 -0.6 0.172772
0.151149 0.5 0.6 0.150255
0.62168 0.5 2.64545e-17 0.20403
0.467897 0.5 0.4125 0.171052
0.467897 0.5 -0.4125 0.189998
0.624316 0.5 0.0729402 0.201903
0.624316 0.5 -0.075 0.206073
0.574156 0.5 -0.2625 0.201404
0.574157 0.5 0.2625 0.187825
0.075776 0.5 -0.6375 0.171386
0.075776 0.5 0.6375 0.14791
0.624316 0.5 -0.15 0.206835
0.624316 0.5 0.15 0.198554
0.523432 0.5 -0.375 0.195086
0.523432 0.5 0.375 0.176941
0.350249 0.5 -0.5625 0.178787
0.350249 0.5 0.5625 0.155771
0.624316 0.5 -0.225 0.206713
0.624316 0.5 0.225 0.194421
0.288069 0.5 0.6 0.151693
0.288069 0.5 -0.6 0.175185
0.574156 0.5 -0.3375 0.200128
0.574156 0.5 0.3375 0.182946
0.411736 0.5 -0.525 0.183219
0.411736 0.5 0.525 0.160686
0 0.5 -0.668821 0.170183
0 0.5 0.668821 0.14581
0.0124865 0.5 -0.668821 0.170183
0.0124865 0.5 0.668821 0.14581
0.67013 0.5 0.0375 0.208132
0.67013 0.5 -0.0375 0.210324
0.219993 0.5 -0.6375 0.171637
0.219993 0.5 0.6375 0.147769
0 0.5 -0.675 0.169945
0 0.5 0.675 0.145394
0.467897 0.5 0.4875 0.16576
0.467897 0.5 -0.4875 0.187684
0.67013 0.5 -0.1125 0.211569
0.67013 0.5 0.1125 0.205031
0 0.5 -0.681179 0.169709
0 0.5 0.681179 0.144981
0.0124865 0.5 -0.681179 0.169709
0.0124865 0.5 0.681179 0.144981
0.523432 0.5 -0.45 0.192889
0.523432 0.5 0.45 0.171555
0.151149 0.5 -0.675 0.170057
0.151149 0.5 0.675 0.1453
0.624316 0.5 -0.3 0.205722
0.624316 0.5 0.3 0.18957
0.67013 0.5 0.1875 0.20107
0.67013 0.5 -0.1875 0.211864
0.574156 0.5 -0.4125 0.198094
0.574157 0.5 0.4125 0.177506
0.708171 0.5 1.88651e-17 0.213594
0.075776 0.5 -0.7125 0.16852
0.075776 0.5 0.7125 0.142894
0.715434 0.5 0.0736268 0.21167
0.715434 0.5 -0.075 0.216458
0.67013 0.5 0.2625 0.196302
0.67013 0.5 -0.2625 0.211223
0.350249 0.5 -0.6375 0.175868
0.350249 0.5 0.6375 0.150416
0.411736 0.5 -0.6 0.180305
0.411736 0.5 0.6 0.155169
0.624316 0.5 -0.375 0.203893
0.624316 0.5 0.375 0.184084
0.715434 0.5 -0.15 0.21724
0.715434 0.5 0.15 0.208108
0.467897 0.5 -0.5625 0.18481
0.467897 0.5 0.5625 0.160106
0.288069 0.5 -0.675 0.172245
0.288069 0.5 0.675 0.146458
0.523432 0.5 -0.525 0.190065
0.523432 0.5 0.525 0.165753
0 0.5 -0.743821 0.167179
0 0.5 0.743821 0.140726
0.0124865 0.5 -0.743821 0.167179
0.0124865 0.5 0.743821 0.140726
0.219992 0.5 0.7125 0.142666
0.219992 0.5 -0.7125 0.168698
0.715434 0.5 -0.225 0.217006
0.715434 0.5 0.225 0.203467
0 0.5 -0.75 0.166914
0 0.5 0.75 0.140296
0.67013 0.5 0.3375 0.190818
0.67013 0.5 -0.3375 0.209663
0.574156 0.5 -0.4875 0.195367
0.574156 0.5 0.4875 0.171588
0 0.5 -0.756179 0.166651
0 0.5 0.756179 0.13987
0.0124865 0.5 -0.756179 0.166651
0.0124865 0.5 0.756179 0.13987
0.756813 0.5 -0.0375 0.221064
0.756813 0.5 0.0375 0.218642
0.151149 0.5 -0.75 0.166986
0.151149 0.5 0.75 0.140157
0.756813 0.5 -0.1125 0.2224
0.756813 0.5 0.1125 0.215175
0.624316 0.5 -0.45 0.201287
0.624316 0.5 0.45 0.178045
0.715434 0.5 -0.3 0.21577
0.715434 0.5 0.3 0.198012
0.756813 0.5 0.1875 0.210725
0.756813 0.5 -0.1875 0.222652
0.67013 0.5 -0.4125 0.207234
0.67013 0.5 0.4125 0.184705
0.411736 0.5 -0.675 0.17694
0.411736 0.5 0.675 0.149405
0.467897 0.5 0.6375 0.154164
0.467897 0.5 -0.6375 0.181433
0.075776 0.5 -0.7875 0.165324
0.075776 0.5 0.7875 0.137714
0.350249 0.5 -0.7125 0.172546
0.350249 0.5 0.7125 0.144851
0.523432 0.5 -0.6 0.18668
0.523432 0.5 0.6 0.159613
0.797732 0.5 2.68882e-17 0.225488
0.756813 0.5 -0.2625 0.221815
0.756814 0.5 0.2625 0.205364
0.797732 0.5 0.0736268 0.222207
0.797732 0.5 -0.075 0.227459
0.288069 0.5 -0.75 0.168937
0.288069 0.5 0.75 0.141038
0.574156 0.5 -0.5625 0.192012
0.574157 0.5 0.5625 0.165277
0.715434 0.5 -0.375 0.213577
0.715434 0.5 0.375 0.191842
0.797732 0.5 -0.15 0.228269
0.797732 0.5 0.15 0.218171
0.624316 0.5 -0.525 0.197977
0.624316 0.5 0.525 0.17155
0.219992 0.5 -0.7875 0.165423
0.219992 0.5 0.7875 0.137398
0 0.5 -0.818821 0.163863
0 0.5 0.818821 0.135497
0.0124865 0.5 0.818821 0.135497
0.0124865 0.5 -0.818821 0.163863
0 0.5 -0.825 0.163574
0 0.5 0.825 0.135058
0.756813 0.5 0.3375 0.199184
0.756814 0.5 -0.3375 0.219922
0.67013 0.5 -0.4875 0.204022
0.67013 0.5 0.4875 0.178057
0.797732 0.5 -0.225 0.227915
0.797732 0.5 0.225 0.212961
0 0.5 -0.831179 0.163287
0 0.5 0.831179 0.134621
0.0124865 0.5 -0.831179 0.163287
0.0124865 0.5 0.831179 0.134621
0.835106 0.5 0.0375 0.229565
0.835106 0.5 -0.0375 0.232246
0.151149 0.5 -0.825 0.163605
0.151149 0.5 0.825 0.134874
0.835106 0.5 0.1125 0.225687
0.835106 0.5 -0.1125 0.233683
0.715434 0.5 -0.45 0.210503
0.715434 0.5 0.45 0.185063
0.797732 0.5 -0.3 0.22641
0.797732 0.5 0.3 0.206831
0.467897 0.5 0.7125 0.148006
0.467897 0.5 -0.7125 0.17762
0.523432 0.5 -0.675 0.182802
0.523432 0.5 0.675 0.153218
0.411736 0.5 -0.75 0.173185
0.411736 0.5 0.75 0.143461
0.835106 0.5 -0.1875 0.233897
0.835106 0.5 0.1875 0.220697
0.574156 0.5 -0.6375 0.188103
0.574157 0.5 0.6375 0.158662
0.350249 0.5 -0.7875 0.168874
0.350249 0.5 0.7875 0.139135
0.756813 0.5 -0.4125 0.21705
0.756814 0.5 0.4125 0.192316
0.075776 0.5 -0.8625 0.16184
0.075776 0.5 0.8625 0.132416
0.624316 0.5 0.6 0.164696
0.624316 0.5 -0.6 0.194041
0.872064 0.5 5.91974e-17 0.236688
0.870122 0.5 0.075 0.232713
0.288069 0.5 -0.825 0.165311
0.288069 0.5 0.825 0.135487
0.67013 0.5 -0.5625 0.200104
0.67013 0.5 0.5625 0.17099
0.872064 0.5 -0.075 0.238841
0.835106 0.5 -0.2625 0.232857
0.835106 0.5 0.2625 0.214681
0.797732 0.5 -0.375 0.223816
0.797732 0.5 0.375 0.199903
0.872064 0.5 0.14794 0.228528
0.872064 0.5 -0.15 0.239682
0.715434 0.5 -0.525 0.206633
0.715434 0.5 0.525 0.177783
0.219992 0.5 0.8625 0.132014
0.219993 0.5 -0.8625 0.161858
0 0.5 -0.893821 0.160277
0 0.5 0.893821 0.13017
0.0124865 0.5 -0.893821 0.160277
0.0124865 0.5 0.893821 0.13017
0 0.5 -0.9 0.159968
0 0.5 0.9 0.129726
0.756813 0.5 -0.4875 0.213287
0.756813 0.5 0.4875 0.184864
0.872064 0.5 -0.225 0.239208
0.872064 0.5 0.225 0.222696
0.835106 0.5 -0.3375 0.230616
0.835106 0.5 0.3375 0.207749
0 0.5 0.906179 0.129283
0 0.5 -0.906179 0.159661
0.0124865 0.5 -0.906179 0.159661
0.0124865 0.5 0.906179 0.129283
0.90582 0.5 -0.0375 0.243754
0.90582 0.5 0.0375 0.240793
0.151149 0.5 -0.9 0.159957
0.151149 0.5 0.9 0.129498
0.90582 0.5 -0.1125 0.245278
0.905821 0.5 0.1125 0.23647
0.523432 0.5 -0.75 0.178506
0.523432 0.5 0.75 0.146645
0.574156 0.5 -0.7125 0.183721
0.574156 0.5 0.7125 0.151832
0.797732 0.5 -0.45 0.220222
0.797732 0.5 0.45 0.192306
0.467897 0.5 0.7875 0.141703
0.467897 0.5 -0.7875 0.173436
0.624316 0.5 -0.675 0.189567
0.624316 0.5 0.675 0.157581
0.411736 0.5 -0.825 0.169099
0.411736 0.5 0.825 0.1374
0.872064 0.5 0.3 0.215834
0.872064 0.5 -0.3 0.237414
0.67013 0.5 -0.6375 0.195573
0.67013 0.5 0.6375 0.163607
0.90582 0.5 0.1875 0.230897
0.905821 0.5 -0.1875 0.245465
0.350249 0.5 -0.8625 0.164906
0.350249 0.5 0.8625 0.133324
0.835106 0.5 -0.4125 0.227265
0.835106 0.5 0.4125 0.200048
0.715434 0.5 -0.6 0.202066
0.715434 0.5 0.6 0.170124
0.939201 0.5 2.75387e-17 0.24791
0.075776 0.5 0.9375 0.127048
0.075776 0.5 -0.9375 0.158112
0.939111 0.5 0.075 0.243678
0.939201 0.5 -0.075 0.250262
0.756813 0.5 0.5625 0.176949
0.756814 0.5 -0.5625 0.20873
0.90582 0.5 0.2625 0.22417
0.905821 0.5 -0.2625 0.244215
0.288069 0.5 -0.9 0.161416
0.288069 0.5 0.9 0.129857
0.872064 0.5 -0.375 0.234381
0.872064 0.5 0.375 0.20808
0.939201 0.5 0.148627 0.238699
0.939201 0.5 -0.15 0.251148
0.797732 0.5 -0.525 0.21573
0.797732 0.5 0.525 0.184166
0.219992 0.5 0.9375 0.126566
0.219992 0.5 -0.9375 0.158046
0.939201 0.5 -0.225 0.250584
0.939201 0.5 0.225 0.232327
0.905821 0.5 -0.3375 0.24158
0.90582 0.5 0.3375 0.216426
0.835106 0.5 -0.4875 0.222896
0.835106 0.5 0.4875 0.191717
0 0.5 0.968821 0.124793
0 0.5 -0.968821 0.156465
0.0124865 0.5 -0.968821 0.156465
0.0124865 0.5 0.968821 0.124793
0.969689 0.5 -0.0375 0.255031
0.969689 0.5 0.0375 0.251729
0.574156 0.5 -0.7875 0.178947
0.574156 0.5 0.7875 0.144869
0 0.5 -0.975 0.156138
0 0.5 0.975 0.124347
0.624316 0.5 -0.75 0.184644
0.624316 0.5 0.75 0.150298
0.969689 0.5 -0.1125 0.256643
0.96969 0.5 0.1125 0.246916
0.523432 0.5 -0.825 0.173865
0.523432 0.5 0.825 0.13997
0.67013 0.5 0.7125 0.156014
0.67013 0.5 -0.7125 0.190529
0 0.5 -0.981179 0.155815
0 0.5 0.981179 0.123903
0.467897 0.5 0.8625 0.135321
0.467897 0.5 -0.8625 0.168948
0.0124865 0.5 -0.981179 0.155815
0.0124865 0.5 0.981179 0.123903
0.872064 0.5 -0.45 0.230217
0.872064 0.5 0.45 0.199593
0.715434 0.5 -0.675 0.196909
0.715434 0.5 0.675 0.162203
0.939201 0.5 -0.3 0.248496
0.939201 0.5 0.3 0.224687
0.151149 0.5 0.975 0.12408
0.151149 0.5 -0.975 0.156085
0.969689 0.5 -0.1875 0.256864
0.969689 0.5 0.1875 0.24072
0.756813 0.5 -0.6375 0.203497
0.756813 0.5 0.6375 0.168716
0.411736 0.5 -0.9 0.164743
0.411736 0.5 0.9 0.131281
0.90582 0.5 -0.4125 0.237694
0.90582 0.5 0.4125 0.207817
0.995005 0.5 0.0749309 0.253246
0.797732 0.5 -0.6 0.210463
0.797732 0.5 0.6 0.17563
1.00005 0.5 -8.47123e-18 0.258856
0.350249 0.5 -0.9375 0.160696
0.350249 0.5 0.9375 0.127472
1.00005 0.5 -0.0749309 0.26138
0.969689 0.5 -0.2625 0.255453
0.969689 0.5 0.2625 0.233244
0.835106 0.5 -0.5625 0.217645
0.835106 0.5 0.5625 0.182894
1.00005 0.5 -0.149862 0.262292
0.939201 0.5 -0.375 0.244995
0.939201 0.5 0.375 0.216063
1.00029 0.5 0.148988 0.248593
0.075776 0.5 -1.0125 0.15418
0.075776 0.5 1.0125 0.121659
0.288069 0.5 0.975 0.124199
0.288069 0.5 -0.975 0.157301
0.872064 0.5 -0.525 0.225046
0.872064 0.5 0.525 0.190531
1.00005 0.5 0.224793 0.241589
1.00005 0.5 -0.224793 0.261648
0.969689 0.5 0.3375 0.224654
0.96969 0.5 -0.3375 0.252406
1.0271 0.5 -0.0368226 0.266199
1.0271 0.5 0.0368226 0.26261
0.90582 0.5 0.4875 0.198544
0.905821 0.5 -0.4875 0.232666
1.0271 0.5 -0.110468 0.267818
1.0271 0.5 0.110468 0.256602
0.67013 0.5 0.7875 0.148307
0.67013 0.5 -0.7875 0.185073
0.624316 0.5 0.825 0.142936
0.624316 0.5 -0.825 0.179365
0.219993 0.5 -1.0125 0.154032
0.219993 0.5 1.0125 0.121104
0.574156 0.5 -0.8625 0.173863
0.574156 0.5 0.8625 0.137851
0.715434 0.5 -0.75 0.191274
0.715434 0.5 0.75 0.15413
0.756813 0.5 0.7125 0.160282
0.756814 0.5 -0.7125 0.19771
0.523432 0.5 -0.9 0.168953
0.523432 0.5 0.9 0.133263
0.939201 0.5 -0.45 0.240236
0.939201 0.5 0.45 0.206644
1.04168 0.5 0 0.267711
1.0271 0.5 -0.184113 0.268071
1.0271 0.5 0.184113 0.250626
0 0.5 -1.04382 0.152465
0 0.5 1.04382 0.11941
0.0124865 0.5 -1.04382 0.152465
0.0124865 0.5 1.04382 0.11941
1.00005 0.5 -0.299723 0.259219
1.00005 0.5 0.299723 0.233116
1.04168 0.5 -0.0729162 0.270355
1.04168 0.5 0.0729162 0.263213
0.797732 0.5 -0.675 0.204552
0.797732 0.5 0.675 0.166841
0.467897 0.5 0.9375 0.128924
0.467897 0.5 -0.9375 0.16422
0 0.5 -1.05 0.152126
0 0.5 1.05 0.118965
0.835106 0.5 -0.6375 0.211647
0.835106 0.5 0.6375 0.173757
1.04168 0.5 -0.145832 0.271298
1.04168 0.5 0.145832 0.257155
0.969689 0.5 -0.4125 0.247986
0.96969 0.5 0.4125 0.215132
0 0.5 -1.05618 0.151788
0 0.5 1.05618 0.118522
0.0124865 0.5 -1.05618 0.151788
0.0124865 0.5 1.05618 0.118522
1.05695 0.5 -0.0360764 0.272828
1.05695 0.5 0.0360764 0.269083
0.411736 0.5 -0.975 0.160174
0.411736 0.5 0.975 0.125161
0.872064 0.5 -0.6 0.219014
0.872064 0.5 0.6 0.181059
1.0271 0.5 -0.257759 0.266509
1.0271 0.5 0.257759 0.242471
0.151149 0.5 -1.05 0.15203
0.151149 0.5 1.05 0.118658
1.05695 0.5 0.108229 0.264233
1.05695 0.5 -0.108229 0.274472
1.04168 0.5 -0.218749 0.270703
1.04168 0.5 0.218749 0.249628
0.90582 0.5 -0.5625 0.226656
0.905821 0.5 0.5625 0.188761
1.00005 0.5 -0.374654 0.255194
1.00005 0.5 0.374654 0.223566
0.350249 0.5 1.0125 0.121628
0.350249 0.5 -1.0125 0.156295
1.05695 0.5 -0.180382 0.274751
1.05695 0.5 0.180382 0.25687
1.07319 0.5 0.0709442 0.268992
0.939201 0.5 -0.525 0.234356
0.939201 0.5 0.525 0.196614
1.0271 0.5 -0.331404 0.263073
1.0271 0.5 0.331404 0.233102
1.08112 0.5 3.23815e-17 0.276495
1.04168 0.5 -0.291665 0.268225
1.04168 0.5 0.291665 0.240782
1.08112 0.5 -0.0709442 0.279293
0.969689 0.5 -0.4875 0.242301
0.96969 0.5 0.4875 0.204887
1.05695 0.5 0.252535 0.248577
1.05695 0.5 -0.252535 0.273311
0.288069 0.5 -1.05 0.153011
0.288069 0.5 1.05 0.118554
0.075776 0.5 -1.0875 0.150086
0.075776 0.5 1.0875 0.116283
1.08112 0.5 -0.141888 0.280304
1.08145 0.5 0.140165 0.265213
0.715434 0.5 0.825 0.146007
0.715434 0.5 -0.825 0.185273
0.756813 0.5 0.7875 0.15176
0.756814 0.5 -0.7875 0.191493
0.67013 0.5 -0.8625 0.179304
0.67013 0.5 0.8625 0.14058
0.797732 0.5 -0.75 0.198132
0.797732 0.5 0.75 0.157923
0.624316 0.5 -0.9 0.173817
0.624316 0.5 0.9 0.135575
1.00005 0.5 -0.449585 0.249782
1.00005 0.5 0.449585 0.213151
0.835106 0.5 -0.7125 0.205053
0.835106 0.5 0.7125 0.164443
0.574156 0.5 -0.9375 0.168547
0.574157 0.5 0.9375 0.130852
1.10076 0.5 -0.0349809 0.283031
1.10076 0.5 0.0349809 0.279047
1.08112 0.5 -0.212832 0.279784
1.08112 0.5 0.212832 0.257875
0.872064 0.5 -0.675 0.21228
0.872064 0.5 0.675 0.171346
1.04168 0.5 -0.364581 0.264039
1.04168 0.5 0.364581 0.230817
1.0271 0.5 0.405049 0.222725
1.0271 0.5 -0.405049 0.25817
1.05695 0.5 -0.324688 0.269866
1.05695 0.5 0.324688 0.23906
1.10076 0.5 -0.104943 0.284827
1.10076 0.5 0.104943 0.27349
0.523432 0.5 0.975 0.126588
0.523432 0.5 -0.975 0.163838
0.90582 0.5 0.6375 0.178651
0.905821 0.5 -0.6375 0.219816
0.219992 0.5 1.0875 0.115647
0.219992 0.5 -1.0875 0.149857
1.11376 0.5 3.81639e-17 0.284006
0.939201 0.5 0.6 0.186172
0.939201 0.5 -0.6 0.227526
1.10076 0.5 -0.174905 0.28515
1.10076 0.5 0.174905 0.26639
0.467897 0.5 -1.0125 0.159312
0.467897 0.5 1.0125 0.122568
1.11376 0.5 -0.0693118 0.286954
1.11376 0.5 0.0693118 0.279165
1.08112 0.5 0.283777 0.248817
1.08112 0.5 -0.283777 0.277394
0 0.5 -1.11882 0.14832
0 0.5 1.11882 0.114057
0.0124865 0.5 -1.11882 0.14832
0.0124865 0.5 1.11882 0.114057
0.969689 0.5 -0.5625 0.235528
0.969689 0.5 0.5625 0.194101
1.11376 0.5 0.138624 0.272173
1.11376 0.5 -0.138624 0.288045
0 0.5 -1.125 0.14797
0 0.5 1.125 0.113617
1.10076 0.5 0.244866 0.257835
1.10076 0.5 -0.244866 0.283863
0.411736 0.5 -1.05 0.155447
0.411736 0.5 1.05 0.119092
1.05695 0.5 -0.396841 0.26495
1.05695 0.5 0.396841 0.228519
1.00005 0.5 -0.524516 0.243116
1.00005 0.5 0.524516 0.202093
1.04168 0.5 -0.437497 0.258401
1.04168 0.5 0.437497 0.219951
0 0.5 -1.13118 0.147623
0 0.5 1.13118 0.113178
0.0124865 0.5 -1.13118 0.147623
0.0124865 0.5 1.13118 0.113178
1.11376 0.5 -0.207935 0.287583
1.11376 0.5 0.207935 0.264832
1.0271 0.5 -0.478694 0.251852
1.0271 0.5 0.478694 0.211572
0.151149 0.5 -1.125 0.147835
0.151149 0.5 1.125 0.113267
1.08112 0.5 -0.354722 0.27322
1.08112 0.5 0.354722 0.238621
1.13882 0.5 -0.0340295 0.291917
1.13882 0.5 0.0340295 0.287771
0.350249 0.5 -1.0875 0.151751
0.350249 0.5 1.0875 0.115833
1.13882 0.5 -0.102088 0.293889
1.13882 0.5 0.102088 0.282042
1.10076 0.5 -0.314829 0.280473
1.10076 0.5 0.314829 0.248033
0.756813 0.5 -0.8625 0.184965
0.756814 0.5 0.8625 0.143262
0.797732 0.5 -0.825 0.19134
0.797732 0.5 0.825 0.148997
1.11376 0.5 -0.277247 0.285255
1.11376 0.5 0.277247 0.255545
0.835106 0.5 0.7875 0.155073
0.835106 0.5 -0.7875 0.198008
0.715434 0.5 -0.9 0.179011
0.715434 0.5 0.9 0.13793
0.872064 0.5 -0.75 0.205015
0.872064 0.5 0.75 0.16153
1.13882 0.5 0.170147 0.274645
1.13882 0.5 -0.170147 0.294252
0.67013 0.5 -0.9375 0.173315
0.67013 0.5 0.9375 0.132914
0.905821 0.5 -0.7125 0.212341
0.905821 0.5 0.7125 0.168393
1.05695 0.5 0.468994 0.217184
1.05695 0.5 -0.468994 0.258554
0.939201 0.5 -0.675 0.219937
0.939201 0.5 0.675 0.175528
0.624316 0.5 0.975 0.128287
0.624316 0.5 -0.975 0.168082
1.04168 0.5 -0.510414 0.251426
1.04168 0.5 0.510414 0.208422
0.969689 0.5 -0.6375 0.227856
0.96969 0.5 0.6375 0.183046
0.288069 0.5 -1.125 0.148594
0.288069 0.5 1.125 0.112956
1.16179 0.5 5.78241e-19 0.295707
1.08112 0.5 0.425666 0.227499
1.08112 0.5 -0.425666 0.26753
1.13882 0.5 -0.238206 0.293007
1.13882 0.5 0.238206 0.265805
1.16179 0.5 0.0669104 0.291204
1.16179 0.5 -0.0669104 0.298872
0.574156 0.5 -1.0125 0.163071
0.574156 0.5 1.0125 0.123933
0.075776 0.5 -1.1625 0.145868
0.075776 0.5 1.1625 0.110962
1.00005 0.5 -0.599447 0.235418
1.00005 0.5 0.599447 0.190628
1.10076 0.5 0.384791 0.237179
1.10076 0.5 -0.384791 0.275547
1.0271 0.5 -0.55234 0.244335
1.0271 0.5 0.55234 0.199887
1.11376 0.5 -0.346559 0.281081
1.11376 0.5 0.346559 0.245098
1.16179 0.5 -0.133821 0.300084
1.16179 0.5 0.133821 0.283894
0.523432 0.5 -1.05 0.158586
0.523432 0.5 1.05 0.120003
1.17463 0.5 -0.0331343 0.30088
1.17463 0.5 0.0331343 0.296514
1.17463 0.5 -0.0994029 0.302977
1.17463 0.5 0.0994029 0.290525
1.16179 0.5 -0.200731 0.299698
1.16179 0.5 0.200731 0.275619
1.13882 0.5 -0.306265 0.289635
1.13882 0.5 0.306265 0.25568
0.219992 0.5 -1.1625 0.145568
0.219992 0.5 1.1625 0.110242
0.467897 0.5 -1.0875 0.154285
0.467897 0.5 1.0875 0.116315
1.17463 0.5 0.165672 0.282918
1.17463 0.5 -0.165672 0.303387
1.05695 0.5 -0.541147 0.250931
1.05695 0.5 0.541147 0.205299
1.18772 0.5 -5.78241e-19 0.302077
1.11376 0.5 -0.41587 0.275331
1.11376 0.5 0.41587 0.233699
1.18772 0.5 -0.065614 0.305379
1.18772 0.5 0.065614 0.296424
1.08112 0.5 -0.49661 0.26045
1.08112 0.5 0.49661 0.215688
1.10076 0.5 -0.454752 0.269057
1.10076 0.5 0.454752 0.225498
1.18534 0.5 0.118202 0.289938
1.16179 0.5 -0.267642 0.297417
1.16179 0.5 0.267642 0.265934
0 0.5 -1.19382 0.144068
0 0.5 1.19382 0.108769
0.0124865 0.5 1.19382 0.108769
0.0124865 0.5 -1.19382 0.144068
1.04168 0.5 -0.58333 0.243356
1.04168 0.5 0.58333 0.196465
1.18772 0.5 -0.131228 0.306676
1.17463 0.5 -0.23194 0.302267
1.17463 0.5 0.23194 0.273785
0.411736 0.5 -1.125 0.150614
0.411736 0.5 1.125 0.113117
1.13882 0.5 -0.374324 0.284624
1.13882 0.5 0.374324 0.244471
0 0.5 -1.2 0.143712
0 0.5 1.2 0.108335
0.905821 0.5 0.7875 0.158105
0.905821 0.5 -0.7875 0.20443
0.872064 0.5 -0.825 0.197384
0.872064 0.5 0.825 0.151751
0.835106 0.5 0.8625 0.145793
0.835106 0.5 -0.8625 0.190664
0.939201 0.5 -0.75 0.211795
0.939201 0.5 0.75 0.164826
0.797732 0.5 -0.9 0.184304
0.797732 0.5 0.9 0.140174
1.0271 0.5 0.625985 0.187897
1.0271 0.5 -0.625985 0.235875
0.969689 0.5 0.7125 0.171919
0.96969 0.5 -0.7125 0.219513
1.18772 0.5 -0.196842 0.306352
1.18772 0.5 0.196842 0.28147
0.756814 0.5 -0.9375 0.178238
0.756814 0.5 0.9375 0.134878
0 0.5 1.20618 0.107903
0 0.5 -1.20618 0.143358
1.00005 0.5 -0.674378 0.226926
1.00005 0.5 0.674378 0.178978
0.0124865 0.5 1.20618 0.107903
0.0124865 0.5 -1.20618 0.143358
1.16179 0.5 -0.334552 0.293187
1.16179 0.5 0.334552 0.255041
0.715434 0.5 0.975 0.129977
0.715434 0.5 -0.975 0.172586
0.151149 0.5 -1.2 0.143541
0.151149 0.5 1.2 0.107946
1.20942 0.5 0.0322645 0.305537
1.20942 0.5 -0.0322645 0.310115
1.17463 0.5 -0.298209 0.298881
1.17463 0.5 0.298209 0.263334
1.20942 0.5 -0.0967935 0.312393
1.20942 0.5 0.0967935 0.299355
0.350249 0.5 -1.1625 0.147114
0.350249 0.5 1.1625 0.110119
0.67013 0.5 1.0125 0.125378
0.67013 0.5 -1.0125 0.167189
1.11376 0.5 0.485183 0.221586
1.11376 0.5 -0.485183 0.268143
1.18772 0.5 0.262456 0.271568
1.18772 0.5 -0.262456 0.304129
1.10076 0.5 -0.524714 0.261297
1.10076 0.5 0.524714 0.213235
1.20942 0.5 -0.161322 0.312861
1.20942 0.5 0.161322 0.291503
1.08112 0.5 -0.567554 0.252219
1.08112 0.5 0.567554 0.20342
0.624316 0.5 -1.05 0.162236
0.624316 0.5 1.05 0.121134
1.13882 0.5 -0.442383 0.27799
1.13882 0.5 0.442383 0.232402
1.05695 0.5 0.6133 0.193082
1.05695 0.5 -0.6133 0.242308
1.16179 0.5 -0.401463 0.287281
1.16179 0.5 0.401463 0.243152
0.574156 0.5 -1.0875 0.157503
0.574156 0.5 1.0875 0.117153
1.17463 0.5 0.364477 0.251766
1.17463 0.5 -0.364477 0.293801
1.20942 0.5 -0.225851 0.311838
1.20942 0.5 0.225851 0.282096
1.23036 0.5 -1.32995e-17 0.313773
1.2294 0.5 0.0634819 0.307289
1.04168 0.5 -0.656246 0.234451
1.04168 0.5 0.656246 0.184297
1.23036 0.5 -0.0634819 0.317294
1.18772 0.5 0.32807 0.260435
1.18772 0.5 -0.32807 0.299897
0.288069 0.5 -1.2 0.144094
0.288069 0.5 1.2 0.107444
1.23036 0.5 -0.126964 0.318729
1.23036 0.5 0.126964 0.301113
0.075776 0.5 -1.2375 0.14157
0.075776 0.5 1.2375 0.10572
0.523432 0.5 -1.125 0.153254
0.523432 0.5 1.125 0.113562
1.0271 0.5 -0.69963 0.226734
1.0271 0.5 0.69963 0.175797
1.24274 0.5 0.0314313 0.314673
1.24274 0.5 -0.0314313 0.319433
1.20942 0.5 0.29038 0.271339
1.20942 0.5 -0.29038 0.308518
1.11376 0.5 -0.554494 0.259758
1.11376 0.5 0.554494 0.208997
1.23036 0.5 -0.190445 0.318495
1.23036 0.5 0.190445 0.29233
1.24274 0.5 -0.0942942 0.321902
1.24274 0.5 0.0942942 0.308252
1.13882 0.5 0.510442 0.219725
1.13882 0.5 -0.510442 0.27003
0.969689 0.5 -0.7875 0.210703
0.969689 0.5 0.7875 0.160812
1.00005 0.5 -0.749309 0.217868
1.00005 0.5 0.749309 0.167301
0.939201 0.5 -0.825 0.20329
0.939201 0.5 0.825 0.154228
0.90582 0.5 0.8625 0.14796
0.90582 0.5 -0.8625 0.196238
1.17463 0.5 -0.430746 0.287014
1.17463 0.5 0.430746 0.239304
1.10076 0.5 -0.594676 0.252449
1.10076 0.5 0.594676 0.200615
1.18772 0.5 -0.393684 0.293932
1.18772 0.5 0.393684 0.248284
1.24274 0.5 -0.157157 0.322437
1.24274 0.5 0.157157 0.300151
1.16179 0.5 -0.468373 0.279853
1.16179 0.5 0.468373 0.230509
0.467897 0.5 -1.1625 0.149189
0.467897 0.5 1.1625 0.110201
0.872064 0.5 -0.9 0.189533
0.872064 0.5 0.9 0.142142
1.25401 0.5 2.08167e-17 0.320053
0.835106 0.5 0.9375 0.136694
0.835106 0.5 -0.9375 0.183149
1.25401 0.5 -0.0622994 0.323722
1.25401 0.5 0.0622994 0.314168
1.08112 0.5 -0.638498 0.243082
1.08112 0.5 0.638498 0.190926
1.23036 0.5 -0.253927 0.316362
1.23036 0.5 0.253927 0.282073
0.219992 0.5 1.2375 0.104931
0.219992 0.5 -1.2375 0.141203
1.25309 0.5 0.121964 0.307074
1.05695 0.5 0.685452 0.180757
1.05695 0.5 -0.685452 0.232966
0.797732 0.5 0.975 0.131532
0.797732 0.5 -0.975 0.177137
1.25401 0.5 -0.124599 0.325259
1.20942 0.5 -0.354909 0.303385
1.20942 0.5 0.354909 0.25943
1.24274 0.5 -0.220019 0.321527
1.24274 0.5 0.220019 0.290468
0.756814 0.5 -1.0125 0.171412
0.756813 0.5 1.0125 0.126681
1.25401 0.5 -0.186898 0.325096
1.25401 0.5 0.186898 0.298105
0.411736 0.5 -1.2 0.145722
0.411736 0.5 1.2 0.107265
0 0.5 -1.26882 0.139749
0 0.5 1.26882 0.103576
0.0124865 0.5 1.26882 0.103576
0.0124865 0.5 -1.26882 0.139749
0.715434 0.5 -1.05 0.166084
0.715434 0.5 1.05 0.122216
1.23036 0.5 -0.31741 0.31213
1.23036 0.5 0.31741 0.270541
1.04168 0.5 -0.729162 0.22496
1.04168 0.5 0.729162 0.17211
1.18772 0.5 -0.459298 0.286396
1.18772 0.5 0.459298 0.235357
1.24274 0.5 -0.282882 0.318288
1.24274 0.5 0.282882 0.279402
0 0.5 -1.275 0.139388
0 0.5 1.275 0.103153
1.27472 0.5 -0.0306319 0.32876
1.27472 0.5 0.0306319 0.323828
1.17463 0.5 0.497015 0.226208
1.17463 0.5 -0.497015 0.278845
1.11376 0.5 -0.623806 0.250406
1.11376 0.5 0.623806 0.19617
1.13882 0.5 -0.578501 0.260927
1.13882 0.5 0.578501 0.206674
0.67013 0.5 -1.0875 0.161008
0.67013 0.5 1.0875 0.118033
1.27472 0.5 -0.0918959 0.331443
1.27472 0.5 0.0918959 0.315691
1.25401 0.5 -0.249197 0.323043
1.25401 0.5 0.249197 0.287643
1.16179 0.5 -0.535284 0.271154
1.16179 0.5 0.535284 0.217359
1.20942 0.5 -0.419438 0.296491
1.20942 0.5 0.419438 0.246592
0 0.5 -1.28118 0.13903
0 0.5 1.28118 0.10273
0.0124865 0.5 1.28118 0.10273
0.0124865 0.5 -1.28118 0.13903
1.27472 0.5 0.15316 0.308845
1.27472 0.5 -0.15316 0.33208
0.151149 0.5 -1.275 0.139182
0.151149 0.5 1.275 0.102726
1.0271 0.5 0.773275 0.163742
1.0271 0.5 -0.773275 0.217126
1.10076 0.5 0.664638 0.187888
1.10076 0.5 -0.664638 0.242799
0.350249 0.5 -1.2375 0.142424
0.350249 0.5 1.2375 0.104517
0.624316 0.5 -1.125 0.156345
0.624316 0.5 1.125 0.114173
1.23036 0.5 0.380892 0.257943
1.23036 0.5 -0.380892 0.306059
1.24274 0.5 -0.345745 0.313124
1.24274 0.5 0.345745 0.26715
1.2906 0.5 0 0.331118
1.2906 0.5 -0.0604698 0.335045
1.2906 0.5 0.0604698 0.325208
1.25401 0.5 -0.311497 0.318842
1.25401 0.5 0.311497 0.275883
1.27472 0.5 -0.214423 0.331243
1.27472 0.5 0.214423 0.298897
1.08112 0.5 0.709442 0.178421
1.08112 0.5 -0.709442 0.23331
1.00005 0.5 -0.824239 0.208462
1.00005 0.5 0.824239 0.155716
1.2906 0.5 -0.12094 0.336767
1.2906 0.5 0.12094 0.317591
0.574156 0.5 -1.1625 0.151895
0.574156 0.5 1.1625 0.110564
0.969689 0.5 -0.8625 0.201623
0.96969 0.5 0.8625 0.149986
1.18772 0.5 0.524912 0.221907
1.18772 0.5 -0.524912 0.277542
1.05695 0.5 -0.757605 0.223143
1.05695 0.5 0.757605 0.168513
0.939201 0.5 -0.9 0.194592
0.939201 0.5 0.9 0.143885
1.30091 0.5 -0.0299772 0.336733
1.30091 0.5 0.0299772 0.331645
1.20942 0.5 -0.483967 0.288128
1.20942 0.5 0.483967 0.233087
1.17463 0.5 -0.563284 0.269477
1.17463 0.5 0.563284 0.212721
1.2906 0.5 -0.181409 0.336732
1.2906 0.5 0.181409 0.308303
0.90582 0.5 0.9375 0.138081
0.90582 0.5 -0.9375 0.187913
1.30091 0.5 -0.0899316 0.339607
1.30091 0.5 0.0899316 0.322273
1.27472 0.5 0.275687 0.287533
1.27472 0.5 -0.275687 0.328108
0.288069 0.5 -1.275 0.139541
0.288069 0.5 1.275 0.102047
0.872064 0.5 -0.975 0.181594
0.872064 0.5 0.975 0.132793
1.23036 0.5 -0.444373 0.298323