# UMean  POINT_DATA 63840
# x  y  z  UMean_x  UMean_y  UMean_z
0 0.5 3.39583e-17 0.898794 0 0.438371
0 0.5 -0.00617931 0.898794 0 0.438371
0 0.5 0.00617931 0.898794 0 0.438371
0.0124865 0.5 -0.00617931 0.898765 0.00089648 0.438572
0.0124865 0.5 0.00617931 0.898766 0.0008947 0.438689
0 0.5 -0.0688207 0.898794 0 0.438371
0 0.5 0.0688207 0.898794 0 0.438371
0.0124865 0.5 -0.0688207 0.898765 0.00089648 0.438572
0.0124865 0.5 0.0688207 0.898766 0.0008947 0.438689
0 0.5 -0.075 0.898794 0 0.438371
0 0.5 0.075 0.898794 0 0.438371
0 0.5 -0.0811793 0.898794 0 0.438371
0 0.5 0.0811793 0.898794 0 0.438371
0.0124865 0.5 -0.0811793 0.898766 0.00089508 0.438454
0.0124865 0.5 0.0811793 0.898767 0.000888285 0.438804
0.075776 0.5 -0.0375 0.898593 0.00543397 0.439588
0.075776 0.5 0.0375 0.898598 0.00542278 0.440291
0.075776 0.5 -0.1125 0.898598 0.00542602 0.438877
0.075776 0.5 0.1125 0.898605 0.00538418 0.440985
0 0.5 -0.143821 0.898794 0 0.438371
0 0.5 0.143821 0.898794 0 0.438371
0.0124865 0.5 -0.143821 0.898766 0.00089508 0.438454
0.0124865 0.5 0.143821 0.898767 0.000888285 0.438804
0 0.5 -0.15 0.898794 0 0.438371
0 0.5 0.15 0.898794 0 0.438371
0.151149 0.5 -0.00137318 0.897434 0.00908426 0.440889
0 0.5 -0.156179 0.898794 0 0.438371
0 0.5 0.156179 0.898794 0 0.438371
0.0124865 0.5 -0.156179 0.898764 0.000891389 0.438339
0.0124865 0.5 0.156179 0.898769 0.00087825 0.438913
0.151149 0.5 0.075 0.897455 0.00907726 0.442097
0.151149 0.5 -0.075 0.897416 0.00910948 0.439596
0.075776 0.5 -0.1875 0.898589 0.00540375 0.438181
0.075776 0.5 0.1875 0.898619 0.00532359 0.441649
0.151149 0.5 0.15 0.897507 0.00900869 0.443309
0.151149 0.5 -0.15 0.897418 0.00907739 0.438343
0 0.5 -0.218821 0.898794 0 0.438371
0 0.5 0.218821 0.898794 0 0.438371
0.0124865 0.5 -0.218821 0.898764 0.000891389 0.438339
0.0124865 0.5 0.218821 0.898769 0.00087825 0.438913
0.219992 0.5 0.0375 0.89635 0.012543 0.44259
0.219993 0.5 -0.0375 0.896315 0.0125615 0.440819
0 0.5 -0.225 0.898794 0 0.438371
0 0.5 0.225 0.898794 0 0.438371
0 0.5 -0.231179 0.898794 0 0.438371
0 0.5 0.231179 0.898794 0 0.438371
0.0124865 0.5 -0.231179 0.898764 0.000884421 0.438222
0.0124865 0.5 0.231179 0.898773 0.000864941 0.439017
0.219992 0.5 0.1125 0.896421 0.0124778 0.444332
0.219993 0.5 -0.1125 0.896313 0.0125343 0.439052
0.151149 0.5 -0.225 0.897435 0.00901419 0.437113
0.151149 0.5 0.225 0.89758 0.00890665 0.44447
0.075776 0.5 -0.2625 0.898587 0.00536149 0.437476
0.075776 0.5 0.2625 0.89864 0.0052429 0.442276
0.288069 0.5 -0.00137318 0.893514 0.0159372 0.442296
0.219992 0.5 0.1875 0.89653 0.0123704 0.446013
0.219993 0.5 -0.1875 0.896329 0.0124656 0.437284
0 0.5 0.293821 0.898794 0 0.438371
0 0.5 -0.293821 0.898794 0 0.438371
0.0124865 0.5 -0.293821 0.898764 0.000884421 0.438222
0.0124865 0.5 0.293821 0.898773 0.000864941 0.439017
0.288069 0.5 -0.075 0.893464 0.0159473 0.439894
0.288069 0.5 0.075 0.893586 0.0159167 0.444529
0 0.5 -0.3 0.898794 0 0.438371
0 0.5 0.3 0.898794 0 0.438371
0 0.5 0.306179 0.898794 0 0.438371
0 0.5 -0.306179 0.898794 0 0.438371
0.0124865 0.5 -0.306179 0.898768 0.000873378 0.438111
0.0124865 0.5 0.306179 0.898777 0.00084881 0.439113
0.288069 0.5 -0.15 0.893499 0.0158743 0.437582
0.288069 0.5 0.15 0.893749 0.0158134 0.44679
0.151149 0.5 -0.3 0.897486 0.008918 0.435924
0.151149 0.5 0.3 0.897673 0.00877238 0.445566
0.219992 0.5 -0.2625 0.896389 0.0123501 0.435602
0.219992 0.5 0.2625 0.89667 0.0122151 0.447619
0.075776 0.5 0.3375 0.898667 0.00514491 0.442858
0.075776 0.5 -0.3375 0.898612 0.00529476 0.436807
0.350249 0.5 -0.0375 0.890787 0.019162 0.441276
0.350249 0.5 0.0375 0.890871 0.0191497 0.444128
0.288069 0.5 -0.225 0.893605 0.0157433 0.435332
0.288069 0.5 0.225 0.89398 0.0156522 0.44897
0.350249 0.5 0.1125 0.891053 0.0190655 0.446934
0.350249 0.5 -0.1125 0.890798 0.0191014 0.438434
0 0.5 0.368821 0.898794 0 0.438371
0 0.5 -0.368821 0.898794 0 0.438371
0.0124865 0.5 -0.368821 0.898768 0.000873378 0.438111
0.0124865 0.5 0.368821 0.898777 0.00084881 0.439113
0 0.5 -0.375 0.898794 0 0.438371
0 0.5 0.375 0.898794 0 0.438371
0 0.5 -0.381179 0.898794 0 0.438371
0 0.5 0.381179 0.898794 0 0.438371
0.0124865 0.5 -0.381179 0.898771 0.000859866 0.438008
0.0124865 0.5 0.381179 0.898783 0.000830223 0.439201
0.350249 0.5 -0.1875 0.890912 0.0189691 0.43563
0.350249 0.5 0.1875 0.891335 0.0189116 0.449683
0.219992 0.5 -0.3375 0.896506 0.0121952 0.433967
0.219992 0.5 0.3375 0.896843 0.0120179 0.449121
0.151149 0.5 -0.375 0.897562 0.00879378 0.434792
0.151149 0.5 0.375 0.897784 0.00860935 0.44658
0.411736 0.5 -0.00137318 0.886841 0.0224529 0.442988
0.288069 0.5 -0.3 0.893787 0.0155591 0.433171
0.288069 0.5 0.3 0.894273 0.0154336 0.451036
0.411736 0.5 -0.075 0.886778 0.0224327 0.439453
0.411736 0.5 0.075 0.886983 0.02243 0.446279
0.075776 0.5 -0.4125 0.898631 0.00521308 0.43618
0.075776 0.5 0.4125 0.898701 0.00503175 0.443388
0.350249 0.5 -0.2625 0.891134 0.0187666 0.432948
0.350249 0.5 0.2625 0.891713 0.018687 0.452302
0.411736 0.5 -0.15 0.886899 0.0222993 0.436076
0.411736 0.5 0.15 0.8873 0.0222948 0.449625
0 0.5 -0.443821 0.898794 0 0.438371
0 0.5 0.443821 0.898794 0 0.438371
0.0124865 0.5 -0.443821 0.898771 0.000859866 0.438008
0.0124865 0.5 0.443821 0.898783 0.000830223 0.439201
0 0.5 -0.45 0.898794 0 0.438371
0 0.5 0.45 0.898794 0 0.438371
0 0.5 -0.456179 0.898794 0 0.438371
0 0.5 0.456179 0.898794 0 0.438371
0.0124865 0.5 -0.456179 0.898775 0.0008442 0.437911
0.0124865 0.5 0.456179 0.89879 0.000809499 0.439279
0.219992 0.5 -0.4125 0.896639 0.0120082 0.432433
0.219993 0.5 0.4125 0.897044 0.0117817 0.450503
0.411736 0.5 -0.225 0.887169 0.0220794 0.432801
0.411736 0.5 0.225 0.887759 0.0220726 0.452863
0.467897 0.5 0.0375 0.883085 0.0255994 0.445017
0.467897 0.5 -0.0375 0.882964 0.0255912 0.441046
0.288069 0.5 -0.375 0.89403 0.0153294 0.431114
0.288069 0.5 0.375 0.894623 0.0151621 0.45296
0.151149 0.5 -0.45 0.897647 0.00864669 0.433732
0.151149 0.5 0.45 0.897911 0.00842037 0.447501
0.467897 0.5 -0.1125 0.883038 0.025475 0.437103
0.467897 0.5 0.1125 0.88339 0.0255018 0.448951
0.350249 0.5 0.3375 0.892177 0.0183951 0.454772
0.350249 0.5 -0.3375 0.891451 0.0185085 0.430365
0.075776 0.5 -0.4875 0.898653 0.00511809 0.435594
0.075776 0.5 0.4875 0.898739 0.00490533 0.443861
0.467897 0.5 -0.1875 0.883314 0.0252547 0.433249
0.467897 0.5 0.1875 0.88388 0.025299 0.45278
0.411736 0.5 -0.3 0.887579 0.0217825 0.429664
0.411736 0.5 0.3 0.888352 0.021766 0.455943
0 0.5 -0.518821 0.898794 0 0.438371
0 0.5 0.518821 0.898794 0 0.438371
0.0124865 0.5 0.518821 0.89879 0.000809499 0.439279
0.0124865 0.5 -0.518821 0.898775 0.0008442 0.437911
0.523432 0.5 -0.00137318 0.878119 0.0288654 0.443067
0 0.5 -0.525 0.898794 0 0.438371
0 0.5 0.525 0.898794 0 0.438371
0.523432 0.5 -0.075 0.878081 0.0287966 0.438365
0.523432 0.5 0.075 0.878328 0.0288527 0.44746
0 0.5 -0.531179 0.898794 0 0.438371
0 0.5 0.531179 0.898794 0 0.438371
0.0124865 0.5 -0.531179 0.898779 0.000826669 0.437822
0.0124865 0.5 0.531179 0.898797 0.000786953 0.439347
0.288069 0.5 -0.45 0.894321 0.0150584 0.429196
0.288069 0.5 0.45 0.895021 0.0148423 0.454718
0.219992 0.5 -0.4875 0.896798 0.0117912 0.431001
0.219993 0.5 0.4875 0.897267 0.0115107 0.451748
0.467897 0.5 -0.2625 0.883772 0.0249368 0.42955
0.467897 0.5 0.2625 0.884552 0.0249955 0.456471
0.350249 0.5 -0.4125 0.891843 0.0181971 0.427949
0.350249 0.5 0.4125 0.892718 0.0180415 0.457054
0.523432 0.5 -0.15 0.87834 0.0285813 0.433899
0.523432 0.5 0.15 0.87882 0.0286926 0.451938
0.151149 0.5 -0.525 0.897747 0.00847865 0.432751
0.151149 0.5 0.525 0.89805 0.00820843 0.44832
0.411736 0.5 -0.375 0.888112 0.0214178 0.426701
0.411736 0.5 0.375 0.889065 0.0213802 0.45882
0.075776 0.5 -0.5625 0.898679 0.00501156 0.435055
0.075776 0.5 0.5625 0.898781 0.00476765 0.444273
0.523432 0.5 -0.225 0.878844 0.0282489 0.429579
0.523432 0.5 0.225 0.879548 0.0284105 0.456277
0.574156 0.5 -0.0375 0.873339 0.0319665 0.440231
0.574156 0.5 0.0375 0.87347 0.0320128 0.445359
0.467897 0.5 0.3375 0.885391 0.0245951 0.459948
0.467897 0.5 -0.3375 0.884396 0.0245357 0.426025
0.574156 0.5 -0.1125 0.873523 0.0317755 0.435158
0.574156 0.5 0.1125 0.873907 0.0319145 0.450462
0 0.5 -0.593821 0.898794 0 0.438371
0 0.5 0.593821 0.898794 0 0.438371
0.0124865 0.5 -0.593821 0.898779 0.000826669 0.437822
0.0124865 0.5 0.593821 0.898797 0.000786953 0.439347
0.288069 0.5 -0.525 0.894658 0.0147497 0.427429
0.288069 0.5 0.525 0.89546 0.0144795 0.456291
0 0.5 -0.6 0.898794 0 0.438371
0 0.5 0.6 0.898794 0 0.438371
0.350249 0.5 -0.4875 0.892305 0.0178374 0.42571
0.350249 0.5 0.4875 0.893325 0.0176318 0.459123
0.523432 0.5 -0.3 0.879573 0.0278105 0.425464
0.523432 0.5 0.3 0.880503 0.0280116 0.460414
0.219992 0.5 -0.5625 0.896979 0.0115464 0.429688
0.219992 0.5 0.5625 0.897506 0.0112085 0.452844
0.574156 0.5 -0.1875 0.874016 0.031447 0.430224
0.574156 0.5 0.1875 0.874632 0.0316739 0.455442
0 0.5 -0.606179 0.898794 0 0.438371
0 0.5 0.606179 0.898794 0 0.438371
0.0124865 0.5 -0.606179 0.898785 0.000807475 0.437741
0.0124865 0.5 0.606179 0.898804 0.000762929 0.439404
0.411736 0.5 -0.45 0.888754 0.0209906 0.423955
0.411736 0.5 0.45 0.889882 0.020922 0.461459
0.151149 0.5 -0.6 0.897859 0.00829147 0.431858
0.151149 0.5 0.6 0.898197 0.00797648 0.449029
0.62168 0.5 2.64545e-17 0.868068 0.03509 0.442695
0.467897 0.5 0.4125 0.886374 0.0241054 0.46317
0.467897 0.5 -0.4125 0.885175 0.024057 0.42275
0.624316 0.5 0.0729402 0.86803 0.0352726 0.448171
0.624316 0.5 -0.075 0.86779 0.0351275 0.436729
0.574156 0.5 -0.2625 0.874789 0.0309912 0.42549
0.574157 0.5 0.2625 0.875642 0.031296 0.460235
0.075776 0.5 -0.6375 0.89871 0.00489457 0.434568
0.075776 0.5 0.6375 0.898826 0.00462079 0.444621
0.624316 0.5 -0.15 0.86824 0.0348128 0.431141
0.624316 0.5 0.15 0.86871 0.0350984 0.453832
0.523432 0.5 -0.375 0.880511 0.0272774 0.42161
0.523432 0.5 0.375 0.88166 0.0275028 0.464287
0.350249 0.5 -0.5625 0.89283 0.0174341 0.423675
0.350249 0.5 0.5625 0.893983 0.0171729 0.460956
0.624316 0.5 -0.225 0.869049 0.0343485 0.425754
0.624316 0.5 0.225 0.869742 0.034764 0.459323
0.288069 0.5 0.6 0.895927 0.0140789 0.457664
0.288069 0.5 -0.6 0.895034 0.0144068 0.425831
0.574156 0.5 -0.3375 0.87583 0.0304211 0.421041
0.574156 0.5 0.3375 0.876917 0.0307877 0.464766
0.411736 0.5 -0.525 0.889489 0.0205077 0.42145
0.411736 0.5 0.525 0.890785 0.0203991 0.463828
0 0.5 -0.668821 0.898794 0 0.438371
0 0.5 0.668821 0.898794 0 0.438371
0.0124865 0.5 -0.668821 0.898785 0.000807475 0.437741
0.0124865 0.5 0.668821 0.898804 0.000762929 0.439404
0.67013 0.5 0.0375 0.862378 0.0384438 0.445261
0.67013 0.5 -0.0375 0.862265 0.0383457 0.438932
0.219993 0.5 -0.6375 0.897179 0.011276 0.428504
0.219993 0.5 0.6375 0.897756 0.0108793 0.453782
0 0.5 -0.675 0.898794 0 0.438371
0 0.5 0.675 0.898794 0 0.438371
0.467897 0.5 0.4875 0.887482 0.023535 0.466097
0.467897 0.5 -0.4875 0.886084 0.0235092 0.419746
0.67013 0.5 -0.1125 0.862604 0.038065 0.432693
0.67013 0.5 0.1125 0.86294 0.0383566 0.451578
0 0.5 -0.681179 0.898794 0 0.438371
0 0.5 0.681179 0.898794 0 0.438371
0.0124865 0.5 -0.681179 0.898791 0.000786879 0.43767
0.0124865 0.5 0.681179 0.898812 0.000737727 0.439451
0.523432 0.5 -0.45 0.881631 0.0266592 0.418068
0.523432 0.5 0.45 0.882993 0.0268934 0.467844
0.151149 0.5 -0.675 0.897982 0.00808717 0.431059
0.151149 0.5 0.675 0.898349 0.00772769 0.449624
0.624316 0.5 -0.3 0.870197 0.0337471 0.42066
0.624316 0.5 0.3 0.87111 0.0342761 0.464566
0.67013 0.5 0.1875 0.863926 0.0380869 0.45776
0.67013 0.5 -0.1875 0.863376 0.0376121 0.426642
0.574156 0.5 -0.4125 0.877113 0.0297493 0.416926
0.574157 0.5 0.4125 0.878424 0.0301582 0.46897
0.708171 0.5 1.88651e-17 0.857117 0.0411728 0.442161
0.075776 0.5 -0.7125 0.898745 0.00476882 0.434135
0.075776 0.5 0.7125 0.898872 0.00446693 0.444904
0.715434 0.5 0.0736268 0.856594 0.0416486 0.448684
0.715434 0.5 -0.075 0.856274 0.0414579 0.43464
0.67013 0.5 0.2625 0.865316 0.0376404 0.463709
0.67013 0.5 -0.2625 0.864559 0.0369998 0.42087
0.350249 0.5 -0.6375 0.893404 0.0169919 0.421857
0.350249 0.5 0.6375 0.894678 0.0166717 0.462537
0.411736 0.5 -0.6 0.890302 0.0199759 0.419208
0.411736 0.5 0.6 0.891753 0.0198199 0.465904
0.624316 0.5 -0.375 0.871652 0.0330229 0.415929
0.624316 0.5 0.375 0.872781 0.0336438 0.469476
0.715434 0.5 -0.15 0.856968 0.0410295 0.427896
0.715434 0.5 0.15 0.857328 0.0415371 0.455404
0.467897 0.5 -0.5625 0.887102 0.0229008 0.417046
0.467897 0.5 0.5625 0.888689 0.0228934 0.468696
0.288069 0.5 -0.675 0.895439 0.0140337 0.424412
0.288069 0.5 0.675 0.896413 0.0136461 0.458826
0.523432 0.5 -0.525 0.882901 0.0259661 0.414871
0.523432 0.5 0.525 0.884472 0.0261944 0.47104
0 0.5 -0.743821 0.898794 0 0.438371
0 0.5 0.743821 0.898794 0 0.438371
0.0124865 0.5 -0.743821 0.898791 0.000786879 0.43767
0.0124865 0.5 0.743821 0.898812 0.000737727 0.439451
0.219992 0.5 0.7125 0.898011 0.0105271 0.454557
0.219992 0.5 -0.7125 0.897393 0.0109829 0.427456
0.715434 0.5 -0.225 0.858161 0.0404165 0.421428
0.715434 0.5 0.225 0.858692 0.0411568 0.462099
0 0.5 -0.75 0.898794 0 0.438371
0 0.5 0.75 0.898794 0 0.438371
0.67013 0.5 0.3375 0.867087 0.0370264 0.469346
0.67013 0.5 -0.3375 0.866127 0.0362417 0.415498
0.574156 0.5 -0.4875 0.878593 0.0289868 0.413194
0.574156 0.5 0.4875 0.880127 0.0294197 0.47279
0 0.5 -0.756179 0.898794 0 0.438371
0 0.5 0.756179 0.898794 0 0.438371
0.0124865 0.5 -0.756179 0.898797 0.000765198 0.437608
0.0124865 0.5 0.756179 0.898819 0.000711876 0.439487
0.756813 0.5 -0.0375 0.850129 0.0447342 0.437243
0.756813 0.5 0.0375 0.850196 0.0448948 0.444813
0.151149 0.5 -0.75 0.898112 0.0078683 0.430358
0.151149 0.5 0.75 0.898503 0.00746578 0.450102
0.756813 0.5 -0.1125 0.850666 0.0443516 0.4298
0.756813 0.5 0.1125 0.850874 0.0448281 0.452389
0.624316 0.5 -0.45 0.873369 0.03219 0.411615
0.624316 0.5 0.45 0.874713 0.0328794 0.473986
0.715434 0.5 -0.3 0.859822 0.0396338 0.415348
0.715434 0.5 0.3 0.860518 0.0405833 0.468493
0.756813 0.5 0.1875 0.852136 0.0445361 0.459822
0.756813 0.5 -0.1875 0.851783 0.0437599 0.422611
0.67013 0.5 -0.4125 0.868026 0.0353558 0.410557
0.67013 0.5 0.4125 0.869191 0.0362562 0.474562
0.411736 0.5 -0.675 0.891171 0.0194022 0.417242
0.411736 0.5 0.675 0.892766 0.019193 0.467671
0.467897 0.5 0.6375 0.889969 0.0221905 0.470944
0.467897 0.5 -0.6375 0.888204 0.0222404 0.414667
0.075776 0.5 -0.7875 0.898782 0.00463622 0.433757
0.075776 0.5 0.7875 0.898917 0.00430886 0.44512
0.350249 0.5 -0.7125 0.894014 0.0165168 0.420268
0.350249 0.5 0.7125 0.895393 0.0161352 0.463855
0.523432 0.5 -0.6 0.88429 0.025209 0.412046
0.523432 0.5 0.6 0.886061 0.0254172 0.473845
0.797732 0.5 2.68882e-17 0.84354 0.0480948 0.440336
0.756813 0.5 -0.2625 0.853464 0.0429729 0.415802
0.756814 0.5 0.2625 0.85394 0.0440256 0.466981
0.797732 0.5 0.0736268 0.843993 0.0481408 0.44885
0.797732 0.5 -0.075 0.843859 0.0477774 0.432187
0.288069 0.5 -0.75 0.895865 0.0136351 0.423179
0.288069 0.5 0.75 0.896908 0.0131874 0.459773
0.574156 0.5 -0.5625 0.880234 0.0281464 0.40988
0.574157 0.5 0.5625 0.881987 0.0285849 0.476184
0.715434 0.5 -0.375 0.861896 0.038699 0.40974
0.715434 0.5 0.375 0.862764 0.0398282 0.474487
0.797732 0.5 -0.15 0.844853 0.0472241 0.42426
0.797732 0.5 0.15 0.844987 0.0479891 0.456735
0.624316 0.5 -0.525 0.875298 0.0312627 0.407767
0.624316 0.5 0.525 0.876861 0.0319972 0.478041
0.219992 0.5 -0.7875 0.897616 0.0106707 0.426549
0.219992 0.5 0.7875 0.898268 0.0101575 0.455167
0 0.5 -0.818821 0.898794 0 0.438371
0 0.5 0.818821 0.898794 0 0.438371
0.0124865 0.5 0.818821 0.898819 0.000711876 0.439487
0.0124865 0.5 -0.818821 0.898797 0.000765198 0.437608
0 0.5 -0.825 0.898794 0 0.438371
0 0.5 0.825 0.898794 0 0.438371
0.756813 0.5 0.3375 0.856256 0.0433071 0.473755
0.756814 0.5 -0.3375 0.855648 0.0420088 0.409483
0.67013 0.5 -0.4875 0.870198 0.0343571 0.406127
0.67013 0.5 0.4875 0.871574 0.0353454 0.479311
0.797732 0.5 -0.225 0.846501 0.046449 0.41669
0.797732 0.5 0.225 0.846705 0.0475678 0.464679
0 0.5 -0.831179 0.898794 0 0.438371
0 0.5 0.831179 0.898794 0 0.438371
0.0124865 0.5 -0.831179 0.898803 0.00074272 0.437555
0.0124865 0.5 0.831179 0.898825 0.000685838 0.439512
0.835106 0.5 0.0375 0.83719 0.0513325 0.444101
0.835106 0.5 -0.0375 0.837199 0.0511028 0.435246
0.151149 0.5 -0.825 0.898247 0.00763779 0.429757
0.151149 0.5 0.825 0.898657 0.0071952 0.450465
0.835106 0.5 0.1125 0.837971 0.0512923 0.452977
0.835106 0.5 -0.1125 0.837987 0.0506101 0.426571
0.715434 0.5 -0.45 0.86432 0.0376308 0.404672
0.715434 0.5 0.45 0.865371 0.0389061 0.479985
0.797732 0.5 -0.3 0.848759 0.0454696 0.409605
0.797732 0.5 0.3 0.849028 0.0469116 0.472265
0.467897 0.5 0.7125 0.891293 0.0214366 0.472827
0.467897 0.5 -0.7125 0.889363 0.0215377 0.41262
0.523432 0.5 -0.675 0.885762 0.0243994 0.409607
0.523432 0.5 0.675 0.887726 0.0245738 0.476235
0.411736 0.5 -0.75 0.892076 0.0187949 0.41556
0.411736 0.5 0.75 0.8938 0.0185273 0.46912
0.835106 0.5 -0.1875 0.83951 0.0498697 0.418218
0.835106 0.5 0.1875 0.839513 0.0509832 0.461699
0.574156 0.5 -0.6375 0.881992 0.0272414 0.407004
0.574157 0.5 0.6375 0.88396 0.0276674 0.479119
0.350249 0.5 -0.7875 0.894646 0.0160152 0.418912
0.350249 0.5 0.7875 0.896116 0.015571 0.464909
0.756813 0.5 -0.4125 0.858263 0.040889 0.403721
0.756814 0.5 0.4125 0.859022 0.0423958 0.480052
0.075776 0.5 -0.8625 0.898822 0.00449853 0.433437
0.075776 0.5 0.8625 0.898957 0.00414935 0.445273
0.624316 0.5 0.6 0.879174 0.0310125 0.481595
0.624316 0.5 -0.6 0.877388 0.0302566 0.404412
0.872064 0.5 5.91974e-17 0.830401 0.0544224 0.438869
0.870122 0.5 0.075 0.831239 0.0543497 0.448809
0.288069 0.5 -0.825 0.896303 0.0132165 0.422134
0.288069 0.5 0.825 0.897404 0.0127095 0.460505
0.67013 0.5 -0.5625 0.872586 0.0332632 0.402243
0.67013 0.5 0.5625 0.874183 0.0343111 0.483523
0.872064 0.5 -0.075 0.830895 0.0540131 0.429453
0.835106 0.5 -0.2625 0.84176 0.0488957 0.410336
0.835106 0.5 0.2625 0.841761 0.0504119 0.47011
0.797732 0.5 -0.375 0.851547 0.0443082 0.403118
0.797732 0.5 0.375 0.851902 0.0460341 0.479378
0.872064 0.5 0.14794 0.832051 0.054374 0.45788
0.872064 0.5 -0.15 0.832232 0.0533277 0.420322
0.715434 0.5 -0.525 0.867023 0.0364483 0.400205
0.715434 0.5 0.525 0.868273 0.0378354 0.48492
0.219992 0.5 0.8625 0.898526 0.00977715 0.455615
0.219993 0.5 -0.8625 0.897843 0.0103438 0.425784
0 0.5 -0.893821 0.898794 0 0.438371
0 0.5 0.893821 0.898794 0 0.438371
0.0124865 0.5 -0.893821 0.898803 0.00074272 0.437555
0.0124865 0.5 0.893821 0.898825 0.000685838 0.439512
0 0.5 -0.9 0.898794 0 0.438371
0 0.5 0.9 0.898794 0 0.438371
0.756813 0.5 -0.4875 0.861237 0.0396334 0.398616
0.756813 0.5 0.4875 0.862162 0.0413083 0.485738
0.872064 0.5 -0.225 0.834381 0.0523817 0.411622
0.872064 0.5 0.225 0.834137 0.0539168 0.467107
0.835106 0.5 -0.3375 0.844649 0.047713 0.403052
0.835106 0.5 0.3375 0.844661 0.0495914 0.478058
0 0.5 0.906179 0.898794 0 0.438371
0 0.5 -0.906179 0.898794 0 0.438371
0.0124865 0.5 -0.906179 0.89881 0.000719712 0.437511
0.0124865 0.5 0.906179 0.898831 0.00065979 0.439527
0.90582 0.5 -0.0375 0.82391 0.0573328 0.433011
0.90582 0.5 0.0375 0.823812 0.0576356 0.443178
0.151149 0.5 -0.9 0.898384 0.00739888 0.429256
0.151149 0.5 0.9 0.89881 0.00691974 0.450715
0.90582 0.5 -0.1125 0.824984 0.0567243 0.423093
0.905821 0.5 0.1125 0.824696 0.0576267 0.453384
0.523432 0.5 -0.75 0.88728 0.0235491 0.407558
0.523432 0.5 0.75 0.889429 0.0236768 0.478199
0.574156 0.5 -0.7125 0.883822 0.0262859 0.404575
0.574156 0.5 0.7125 0.886002 0.0266817 0.481578
0.797732 0.5 -0.45 0.854781 0.042988 0.397316
0.797732 0.5 0.45 0.855252 0.0449528 0.485897
0.467897 0.5 0.7875 0.892632 0.0206423 0.474339
0.467897 0.5 -0.7875 0.89055 0.0208024 0.410905
0.624316 0.5 -0.675 0.879583 0.0291878 0.401566
0.624316 0.5 0.675 0.881597 0.0299415 0.484621
0.411736 0.5 -0.825 0.892997 0.0181622 0.414159
0.411736 0.5 0.825 0.894836 0.0178318 0.470251
0.872064 0.5 0.3 0.836986 0.0531823 0.475918
0.872064 0.5 -0.3 0.837304 0.051197 0.403515
0.67013 0.5 -0.6375 0.875121 0.0320924 0.398926
0.67013 0.5 0.6375 0.876953 0.0331709 0.48716
0.90582 0.5 0.1875 0.826524 0.0573061 0.463421
0.905821 0.5 -0.1875 0.826931 0.0558299 0.41356
0.350249 0.5 -0.8625 0.895286 0.0154942 0.417787
0.350249 0.5 0.8625 0.896833 0.0149868 0.465699
0.835106 0.5 -0.4125 0.848082 0.0463448 0.396503
0.835106 0.5 0.4125 0.848151 0.0485379 0.485443
0.715434 0.5 -0.6 0.869929 0.0351724 0.396369
0.715434 0.5 0.6 0.8714 0.0366364 0.489241
0.939201 0.5 2.75387e-17 0.816724 0.0608007 0.437207
0.075776 0.5 0.9375 0.898991 0.0039902 0.445364
0.075776 0.5 -0.9375 0.898861 0.0043576 0.433172
0.939111 0.5 0.075 0.817178 0.0609754 0.449013
0.939201 0.5 -0.075 0.817448 0.0602914 0.426475
0.756813 0.5 0.5625 0.865601 0.0400684 0.490789
0.756814 0.5 -0.5625 0.864478 0.0382653 0.394198
0.90582 0.5 0.2625 0.829236 0.05668 0.473109
0.905821 0.5 -0.2625 0.829789 0.0546622 0.40457
0.288069 0.5 -0.9 0.896743 0.0127836 0.421274
0.288069 0.5 0.9 0.897894 0.0122187 0.461026
0.872064 0.5 -0.375 0.84089 0.0498006 0.396156
0.872064 0.5 0.375 0.840527 0.0521862 0.48417
0.939201 0.5 0.148627 0.818622 0.0607887 0.459116
0.939201 0.5 -0.15 0.819173 0.0594619 0.416102
0.797732 0.5 -0.525 0.858364 0.041534 0.392261
0.797732 0.5 0.525 0.858983 0.0436902 0.49173
0.219992 0.5 0.9375 0.89879 0.00938974 0.455907
0.219992 0.5 -0.9375 0.898072 0.0100068 0.425158
0.939201 0.5 -0.225 0.821871 0.0583296 0.406227
0.939201 0.5 0.225 0.82101 0.0603192 0.469504
0.905821 0.5 -0.3375 0.83346 0.0532565 0.396335
0.90582 0.5 0.3375 0.832749 0.0557638 0.482262
0.835106 0.5 -0.4875 0.851961 0.0448198 0.390742
0.835106 0.5 0.4875 0.852122 0.0472728 0.492105
0 0.5 0.968821 0.898794 0 0.438371
0 0.5 -0.968821 0.898794 0 0.438371
0.0124865 0.5 -0.968821 0.89881 0.000719712 0.437511
0.0124865 0.5 0.968821 0.898831 0.00065979 0.439527
0.969689 0.5 -0.0375 0.809943 0.0637901 0.430563
0.969689 0.5 0.0375 0.809701 0.064173 0.442135
0.574156 0.5 -0.7875 0.885682 0.0252935 0.402588
0.574156 0.5 0.7875 0.88807 0.0256418 0.483552
0 0.5 -0.975 0.898794 0 0.438371
0 0.5 0.975 0.898794 0 0.438371
0.624316 0.5 -0.75 0.881829 0.0280723 0.399228
0.624316 0.5 0.75 0.884078 0.0288006 0.487104
0.969689 0.5 -0.1125 0.811414 0.0630507 0.419335
0.96969 0.5 0.1125 0.81066 0.0641956 0.453758
0.523432 0.5 -0.825 0.888811 0.0226698 0.405893
0.523432 0.5 0.825 0.891136 0.0227385 0.479736
0.67013 0.5 0.7125 0.879819 0.0319434 0.4902
0.67013 0.5 -0.7125 0.877738 0.0308632 0.396183
0 0.5 -0.981179 0.898794 0 0.438371
0 0.5 0.981179 0.898794 0 0.438371
0.467897 0.5 0.8625 0.893961 0.0198179 0.475483
0.467897 0.5 -0.8625 0.891742 0.0200444 0.409517
0.0124865 0.5 -0.981179 0.898816 0.000696625 0.437477
0.0124865 0.5 0.981179 0.898834 0.00063464 0.439532
0.872064 0.5 -0.45 0.845017 0.0482198 0.389638
0.872064 0.5 0.45 0.84467 0.0509485 0.491735
0.715434 0.5 -0.675 0.872957 0.0338242 0.393177
0.715434 0.5 0.675 0.874676 0.0353289 0.49291
0.939201 0.5 -0.3 0.825548 0.0569212 0.397062
0.939201 0.5 0.3 0.824414 0.0595014 0.479588
0.151149 0.5 0.975 0.898962 0.00664248 0.450859
0.151149 0.5 -0.975 0.898521 0.00715503 0.428853
0.969689 0.5 -0.1875 0.81381 0.0619804 0.408563
0.969689 0.5 0.1875 0.812767 0.0638569 0.465188
0.756813 0.5 -0.6375 0.867895 0.0368086 0.390495
0.756813 0.5 0.6375 0.86925 0.0386979 0.495136
0.411736 0.5 -0.9 0.893916 0.0175124 0.413033
0.411736 0.5 0.9 0.895853 0.0171152 0.471069
0.90582 0.5 -0.4125 0.837779 0.0516376 0.388999
0.90582 0.5 0.4125 0.836987 0.054575 0.490739
0.995005 0.5 0.0749309 0.804979 0.0661939 0.448681
0.797732 0.5 -0.6 0.862188 0.0399722 0.387987
0.797732 0.5 0.6 0.863002 0.0422717 0.496825
1.00005 0.5 -8.47123e-18 0.803374 0.0664304 0.435449
0.350249 0.5 -0.9375 0.895923 0.0149606 0.416885
0.350249 0.5 0.9375 0.897527 0.0143892 0.466234
1.00005 0.5 -0.0749309 0.804335 0.0658325 0.423491
0.969689 0.5 -0.2625 0.81738 0.0605914 0.398398
0.969689 0.5 0.2625 0.815963 0.0631631 0.47622
0.835106 0.5 -0.5625 0.856158 0.0431659 0.38583
0.835106 0.5 0.5625 0.856459 0.0458244 0.498003
1.00005 0.5 -0.149862 0.80646 0.0648806 0.411982
0.939201 0.5 -0.375 0.830023 0.0552703 0.388801
0.939201 0.5 0.375 0.828665 0.0583792 0.489014
1.00029 0.5 0.148988 0.80553 0.0664561 0.459938
0.075776 0.5 -1.0125 0.898899 0.00421578 0.432962
0.075776 0.5 1.0125 0.899018 0.00383483 0.445398
0.288069 0.5 0.975 0.898372 0.0117189 0.461347
0.288069 0.5 -0.975 0.897178 0.0123421 0.420594
0.872064 0.5 -0.525 0.84956 0.0464851 0.384019
0.872064 0.5 0.525 0.849292 0.0494954 0.498487
1.00005 0.5 0.224793 0.808211 0.0659989 0.471555
1.00005 0.5 -0.224793 0.809715 0.0635911 0.40099
0.969689 0.5 0.3375 0.82014 0.0621323 0.486637
0.96969 0.5 -0.3375 0.821961 0.0589293 0.389164
1.0271 0.5 -0.0368226 0.796618 0.0692658 0.428217
1.0271 0.5 0.0368226 0.79628 0.0697054 0.440847
0.90582 0.5 0.4875 0.841829 0.0531387 0.498434
0.905821 0.5 -0.4875 0.842621 0.049838 0.382601
1.0271 0.5 -0.110468 0.79836 0.0684495 0.416038
1.0271 0.5 0.110468 0.796908 0.0700702 0.456456
0.67013 0.5 0.7875 0.882722 0.030647 0.492633
0.67013 0.5 -0.7875 0.880373 0.0295938 0.394001
0.624316 0.5 0.825 0.886563 0.0276063 0.489043
0.624316 0.5 -0.825 0.884074 0.0269258 0.397382
0.219993 0.5 -1.0125 0.8983 0.00966466 0.424666
0.219993 0.5 1.0125 0.899057 0.00899848 0.456054
0.574156 0.5 -0.8625 0.887529 0.0242772 0.401028
0.574156 0.5 0.8625 0.890122 0.024562 0.485047
0.715434 0.5 -0.75 0.876031 0.0324249 0.390619
0.715434 0.5 0.75 0.878028 0.0339336 0.49591
0.756813 0.5 0.7125 0.873025 0.037219 0.498756
0.756814 0.5 -0.7125 0.871397 0.0352876 0.387502
0.523432 0.5 -0.9 0.890323 0.0217722 0.404596
0.523432 0.5 0.9 0.892813 0.0217709 0.480853
0.939201 0.5 -0.45 0.835126 0.0534077 0.381539
0.939201 0.5 0.45 0.833654 0.0569756 0.497646
1.04168 0.5 0 0.792526 0.0710824 0.434002
1.0271 0.5 -0.184113 0.80119 0.0672856 0.404347
1.0271 0.5 0.184113 0.799665 0.0694467 0.466019
0 0.5 -1.04382 0.898794 0 0.438371
0 0.5 1.04382 0.898794 0 0.438371
0.0124865 0.5 -1.04382 0.898816 0.000696625 0.437477
0.0124865 0.5 1.04382 0.898834 0.00063464 0.439532
1.00005 0.5 -0.299723 0.814164 0.0619952 0.390799
1.00005 0.5 0.299723 0.812177 0.0651268 0.482835
1.04168 0.5 -0.0729162 0.793617 0.0704381 0.421339
1.04168 0.5 0.0729162 0.792859 0.0713448 0.446941
0.797732 0.5 -0.675 0.866144 0.0383289 0.384504
0.797732 0.5 0.675 0.867211 0.0407217 0.501135
0.467897 0.5 0.9375 0.895251 0.0189732 0.476268
0.467897 0.5 -0.9375 0.892915 0.0192725 0.40844
0 0.5 -1.05 0.898794 0 0.438371
0 0.5 1.05 0.898794 0 0.438371
0.835106 0.5 -0.6375 0.860555 0.0414112 0.381786
0.835106 0.5 0.6375 0.861067 0.0442198 0.503057
1.04168 0.5 -0.145832 0.795991 0.0694273 0.409188
1.04168 0.5 0.145832 0.794562 0.0712243 0.459795
0.969689 0.5 -0.4125 0.827259 0.0570231 0.380958
0.96969 0.5 0.4125 0.825192 0.0607849 0.496254
0 0.5 -1.05618 0.898794 0 0.438371
0 0.5 1.05618 0.898794 0 0.438371
0.0124865 0.5 -1.05618 0.898821 0.000673658 0.43745
0.0124865 0.5 1.05618 0.898837 0.000610253 0.439529
1.05695 0.5 -0.0360764 0.788838 0.0724139 0.426852
1.05695 0.5 0.0360764 0.788435 0.0728819 0.440015
0.411736 0.5 -0.975 0.894816 0.0168526 0.412168
0.411736 0.5 0.975 0.896831 0.016385 0.471586
0.872064 0.5 -0.6 0.854378 0.0446282 0.379345
0.872064 0.5 0.6 0.854263 0.0478584 0.504349
1.0271 0.5 -0.257759 0.805323 0.0657772 0.393209
1.0271 0.5 0.257759 0.803264 0.0687531 0.47809
0.151149 0.5 -1.05 0.898655 0.0069096 0.428542
0.151149 0.5 1.05 0.899108 0.00636683 0.450903
1.05695 0.5 0.108229 0.788696 0.0732924 0.453491
1.05695 0.5 -0.108229 0.790702 0.0715611 0.414225
1.04168 0.5 -0.218749 0.799574 0.068064 0.397521
1.04168 0.5 0.218749 0.797577 0.0707226 0.472341
0.90582 0.5 -0.5625 0.847836 0.0478902 0.377218
0.905821 0.5 0.5625 0.847131 0.0514846 0.505155
1.00005 0.5 -0.374654 0.819548 0.0601331 0.381676
1.00005 0.5 0.374654 0.817142 0.0639166 0.493375
0.350249 0.5 1.0125 0.898186 0.0137804 0.46653
0.350249 0.5 -1.0125 0.896547 0.0144202 0.416197
1.05695 0.5 -0.180382 0.793752 0.0703524 0.402117
1.05695 0.5 0.180382 0.791836 0.0726628 0.466216
1.07319 0.5 0.0709442 0.78443 0.0748288 0.449137
0.939201 0.5 -0.525 0.840716 0.051369 0.375367
0.939201 0.5 0.525 0.839235 0.0553197 0.505335
1.0271 0.5 -0.331404 0.810648 0.0639823 0.383124
1.0271 0.5 0.331404 0.807994 0.0677024 0.489517
1.08112 0.5 3.23815e-17 0.78176 0.0753562 0.432515
1.04168 0.5 -0.291665 0.804442 0.0663817 0.386649
1.04168 0.5 0.291665 0.801815 0.0698509 0.484358
1.08112 0.5 -0.0709442 0.782964 0.0746721 0.419201
0.969689 0.5 -0.4875 0.833178 0.0549092 0.373872
0.96969 0.5 0.4875 0.830985 0.0591505 0.504958
1.05695 0.5 0.252535 0.795529 0.0719787 0.478803
1.05695 0.5 -0.252535 0.798096 0.0687871 0.390459
0.288069 0.5 -1.05 0.897603 0.0118968 0.420082
0.288069 0.5 1.05 0.898833 0.0112134 0.461479
0.075776 0.5 -1.0875 0.898932 0.00407452 0.432803
0.075776 0.5 1.0875 0.899035 0.00368496 0.445381
1.08112 0.5 -0.141888 0.785557 0.0736115 0.406454
1.08145 0.5 0.140165 0.784059 0.0754585 0.460052
0.715434 0.5 0.825 0.881384 0.0324714 0.498242
0.715434 0.5 -0.825 0.879079 0.0309944 0.388671
0.756813 0.5 0.7875 0.876846 0.0356541 0.501641
0.756814 0.5 -0.7875 0.874897 0.0337253 0.385198
0.67013 0.5 -0.8625 0.882972 0.0283015 0.392353
0.67013 0.5 0.8625 0.8856 0.0293004 0.494467
0.797732 0.5 -0.75 0.870129 0.0366303 0.381792
0.797732 0.5 0.75 0.871518 0.0390652 0.504642
0.624316 0.5 -0.9 0.886273 0.0257625 0.396003
0.624316 0.5 0.9 0.889005 0.0263749 0.490449
1.00005 0.5 -0.449585 0.825663 0.0580345 0.373729
1.00005 0.5 0.449585 0.822975 0.0623933 0.503015
0.835106 0.5 -0.7125 0.865025 0.039585 0.378601
0.835106 0.5 0.7125 0.865832 0.0424857 0.507246
0.574156 0.5 -0.9375 0.889331 0.0232486 0.399872
0.574157 0.5 0.9375 0.892118 0.0234562 0.486074
1.10076 0.5 -0.0349809 0.776333 0.0773083 0.424789
1.10076 0.5 0.0349809 0.775839 0.0778149 0.438737
1.08112 0.5 -0.212832 0.789437 0.0721886 0.394173
1.08112 0.5 0.212832 0.786854 0.0750776 0.472893
0.872064 0.5 -0.675 0.859331 0.0426821 0.375624
0.872064 0.5 0.675 0.859458 0.0460668 0.509288
1.04168 0.5 -0.364581 0.810348 0.0644228 0.376952
1.04168 0.5 0.364581 0.80714 0.068629 0.495617
1.0271 0.5 0.405049 0.813714 0.0663162 0.50009
1.0271 0.5 -0.405049 0.8168 0.0619252 0.374222