# UMean  POINT_DATA 63140
# x  y  z  UMean_x  UMean_y  UMean_z
0 0.1 0 0.898794 0 0.438371
0 0.1 -0.0179898 0.898794 0 0.438371
0 0.1 0.0179898 0.898794 0 0.438371
0.0363518 0.1 0.0179898 0.901729 0.00718326 0.439382
0.0363518 0.1 -0.0179898 0.901707 0.00719604 0.439004
0 0.1 -0.0570102 0.898794 0 0.438371
0 0.1 0.0570102 0.898794 0 0.438371
0.0363518 0.1 0.0570102 0.901729 0.00718326 0.439382
0.0363518 0.1 -0.0570102 0.901707 0.00719604 0.439004
0 0.1 -0.075 0.898794 0 0.438371
0 0.1 0.075 0.898794 0 0.438371
0.075776 0.1 -0.0375 0.904908 0.0151207 0.439685
0.075776 0.1 0.0375 0.904955 0.0150945 0.440473
0 0.1 -0.0929898 0.898794 0 0.438371
0 0.1 0.0929898 0.898794 0 0.438371
0.0363518 0.1 -0.0929898 0.901669 0.00718817 0.438598
0.0363518 0.1 0.0929898 0.901717 0.00716199 0.439758
0 0.1 -0.13201 0.898794 0 0.438371
0 0.1 0.13201 0.898794 0 0.438371
0.075776 0.1 -0.1125 0.90483 0.0151046 0.438839
0.075776 0.1 0.1125 0.904933 0.0150513 0.441258
0.0363518 0.1 -0.13201 0.901669 0.00718817 0.438598
0.0363518 0.1 0.13201 0.901717 0.00716199 0.439758
0 0.1 -0.15 0.898794 0 0.438371
0 0.1 0.15 0.898794 0 0.438371
0.150379 0.1 -2.22623e-17 0.906677 0.0144012 0.440816
0 0.1 -0.16799 0.898794 0 0.438371
0 0.1 0.16799 0.898794 0 0.438371
0.150379 0.1 -0.075 0.906629 0.014373 0.439424
0.150379 0.1 0.075 0.906786 0.0144004 0.442193
0.0363518 0.1 -0.16799 0.901613 0.00714875 0.438207
0.0363518 0.1 0.16799 0.901686 0.00712489 0.440116
0.075776 0.1 -0.1875 0.904713 0.0150239 0.438022
0.075776 0.1 0.1875 0.904868 0.0149759 0.442003
0 0.1 -0.20701 0.898794 0 0.438371
0 0.1 0.20701 0.898794 0 0.438371
0.0363518 0.1 -0.20701 0.901613 0.00714875 0.438207
0.0363518 0.1 0.20701 0.901686 0.00712489 0.440116
0.150379 0.1 -0.15 0.906685 0.0143125 0.438033
0.150379 0.1 0.15 0.906963 0.0143679 0.443536
0.219993 0.1 -0.0375 0.90828 0.0137054 0.440544
0.219993 0.1 0.0375 0.908409 0.0137564 0.442495
0 0.1 -0.225 0.898794 0 0.438371
0 0.1 0.225 0.898794 0 0.438371
0 0.1 -0.24299 0.898794 0 0.438371
0 0.1 0.24299 0.898794 0 0.438371
0.0363518 0.1 0.24299 0.901644 0.00708111 0.440448
0.0363518 0.1 -0.24299 0.901552 0.00710623 0.437813
0.219993 0.1 -0.1125 0.908343 0.0136363 0.438613
0.219993 0.1 0.1125 0.908684 0.0137687 0.444428
0.150379 0.1 -0.225 0.906868 0.0142408 0.436654
0.150379 0.1 0.225 0.90722 0.0143055 0.444827
0.075776 0.1 -0.2625 0.904589 0.0149381 0.437201
0.075776 0.1 0.2625 0.904784 0.0148872 0.442696
0 0.1 -0.28201 0.898794 0 0.438371
0 0.1 0.28201 0.898794 0 0.438371
0.0363518 0.1 -0.28201 0.901552 0.00710623 0.437813
0.0363518 0.1 0.28201 0.901644 0.00708111 0.440448
0.287374 0.1 -2.89121e-19 0.90537 0.0132717 0.441892
0.219992 0.1 0.1875 0.909184 0.0137427 0.446282
0.219992 0.1 -0.1875 0.908682 0.0135614 0.436694
0.287374 0.1 -0.075 0.905364 0.0132223 0.439388
0.287374 0.1 0.075 0.905558 0.0133052 0.44439
0 0.1 -0.3 0.898794 0 0.438371
0 0.1 0.3 0.898794 0 0.438371
0 0.1 0.31799 0.898794 0 0.438371
0 0.1 -0.31799 0.898794 0 0.438371
0.0363518 0.1 -0.31799 0.901515 0.00707669 0.437443
0.0363518 0.1 0.31799 0.901606 0.00704254 0.440751
0.287374 0.1 0.15 0.905935 0.0133117 0.446841
0.287374 0.1 -0.15 0.905582 0.0131684 0.436898
0.150379 0.1 -0.3 0.907122 0.0141873 0.435299
0.150379 0.1 0.3 0.907506 0.0142245 0.446058
0.219993 0.1 0.2625 0.90983 0.0136815 0.448104
0.219993 0.1 -0.2625 0.909291 0.013515 0.434784
0.075776 0.1 -0.3375 0.904515 0.0148786 0.436428
0.075776 0.1 0.3375 0.904707 0.0148088 0.443328
0.350249 0.1 -0.0375 0.902485 0.0128135 0.440722
0.350249 0.1 0.0375 0.90257 0.0128528 0.443775
0 0.1 -0.35701 0.898794 0 0.438371
0 0.1 0.35701 0.898794 0 0.438371
0.0363518 0.1 -0.35701 0.901515 0.00707669 0.437443
0.0363518 0.1 0.35701 0.901606 0.00704254 0.440751
0.287374 0.1 -0.225 0.906049 0.0131214 0.434431
0.287374 0.1 0.225 0.906507 0.0132813 0.449231
0.350249 0.1 -0.1125 0.90261 0.0127745 0.437688
0.350249 0.1 0.1125 0.902837 0.012884 0.446781
0 0.1 -0.375 0.898794 0 0.438371
0 0.1 0.375 0.898794 0 0.438371
0 0.1 -0.39299 0.898794 0 0.438371
0 0.1 0.39299 0.898794 0 0.438371
0.0363518 0.1 -0.39299 0.901491 0.00705075 0.4371
0.0363518 0.1 0.39299 0.90158 0.00700743 0.441017
0.350249 0.1 -0.1875 0.902954 0.0127406 0.434662
0.350249 0.1 0.1875 0.903302 0.0128918 0.449745
0.219992 0.1 -0.3375 0.909866 0.0134912 0.432921
0.219992 0.1 0.3375 0.910459 0.0135855 0.44983
0.150379 0.1 0.375 0.907778 0.0141343 0.447201
0.150379 0.1 -0.375 0.907354 0.0141428 0.434022
0.411108 0.1 4.33681e-19 0.897577 0.0131044 0.442277
0.287374 0.1 -0.3 0.906666 0.0130792 0.432016
0.287374 0.1 0.3 0.907212 0.0132057 0.451535
0.411108 0.1 -0.075 0.897638 0.0130658 0.438602
0.411108 0.1 0.075 0.897763 0.0131386 0.445939
0.075776 0.1 -0.4125 0.904467 0.0148256 0.435713
0.075776 0.1 0.4125 0.904655 0.014737 0.443881
0 0.1 0.43201 0.898794 0 0.438371
0 0.1 -0.43201 0.898794 0 0.438371
0.0363518 0.1 0.43201 0.90158 0.00700743 0.441017
0.0363518 0.1 -0.43201 0.901491 0.00705075 0.4371
0.411108 0.1 -0.15 0.897954 0.013027 0.434955
0.411108 0.1 0.15 0.898186 0.0131584 0.449543
0.350249 0.1 -0.2625 0.903533 0.0127066 0.431696
0.350249 0.1 0.2625 0.903983 0.0128488 0.452617
0 0.1 -0.45 0.898794 0 0.438371
0 0.1 0.45 0.898794 0 0.438371
0.219992 0.1 0.4125 0.911016 0.0134727 0.451441
0.219992 0.1 -0.4125 0.910314 0.0134489 0.431209
0 0.1 -0.46799 0.898794 0 0.438371
0 0.1 0.46799 0.898794 0 0.438371
0.411108 0.1 -0.225 0.898526 0.0129855 0.43138
0.411108 0.1 0.225 0.898856 0.0131439 0.453054
0.467897 0.1 -0.0375 0.892807 0.013344 0.440158
0.467897 0.1 0.0375 0.892858 0.0133818 0.444451
0.0363518 0.1 0.46799 0.901562 0.00697888 0.441241
0.0363518 0.1 -0.46799 0.901481 0.00702479 0.43679
0.287374 0.1 -0.375 0.907279 0.0130204 0.429723
0.287374 0.1 0.375 0.90796 0.0130914 0.453701
0.150379 0.1 0.45 0.908031 0.0140459 0.448231
0.150379 0.1 -0.45 0.907558 0.0140925 0.432846
0.467897 0.1 0.1125 0.893197 0.0134103 0.448694
0.467897 0.1 -0.1125 0.893057 0.0133058 0.435889
0.350249 0.1 -0.3375 0.904237 0.0126429 0.42882
0.350249 0.1 0.3375 0.904839 0.0127464 0.455369
0.075776 0.1 -0.4875 0.904446 0.0147725 0.435068
0.075776 0.1 0.4875 0.904618 0.0146788 0.44435
0.467897 0.1 0.1875 0.893814 0.013422 0.452845
0.467897 0.1 -0.1875 0.893598 0.0132622 0.43168
0 0.1 -0.50701 0.898794 0 0.438371
0 0.1 0.50701 0.898794 0 0.438371
0.0363518 0.1 -0.50701 0.901481 0.00702479 0.43679
0.0363518 0.1 0.50701 0.901562 0.00697888 0.441241
0.411108 0.1 0.3 0.899773 0.0130745 0.456429
0.411108 0.1 -0.3 0.89931 0.0129239 0.427927
0.522865 0.1 1.41031e-17 0.886579 0.0139716 0.44201
0 0.1 -0.525 0.898794 0 0.438371
0 0.1 0.525 0.898794 0 0.438371
0.522865 0.1 -0.075 0.886736 0.0139273 0.437071
0.522865 0.1 0.075 0.88678 0.0140026 0.446945
0.287374 0.1 0.45 0.908709 0.0129519 0.455679
0.287374 0.1 -0.45 0.907857 0.0129376 0.427607
0.219992 0.1 0.4875 0.911533 0.0133642 0.452878
0.219992 0.1 -0.4875 0.910728 0.0133959 0.429623
0.467897 0.1 -0.2625 0.894413 0.0132084 0.427629
0.467897 0.1 0.2625 0.894725 0.0133874 0.456856
0.350249 0.1 -0.4125 0.904952 0.0125401 0.426145
0.350249 0.1 0.4125 0.905776 0.0126012 0.4579
0 0.1 -0.54299 0.898794 0 0.438371
0 0.1 0.54299 0.898794 0 0.438371
0.522865 0.1 0.15 0.887327 0.0140134 0.451802
0.522865 0.1 -0.15 0.887246 0.0138706 0.4322
0.0363518 0.1 0.54299 0.901555 0.00695597 0.441439
0.0363518 0.1 -0.54299 0.901484 0.00700391 0.436509
0.150379 0.1 -0.525 0.907754 0.0140394 0.431775
0.150379 0.1 0.525 0.908256 0.0139652 0.449112
0.411108 0.1 -0.375 0.900214 0.0128222 0.424665
0.411108 0.1 0.375 0.900888 0.0129491 0.459601
0.075776 0.1 -0.5625 0.904453 0.0147299 0.434482
0.075776 0.1 0.5625 0.904604 0.0146322 0.444762
0.522865 0.1 -0.225 0.888088 0.0137949 0.427476
0.522865 0.1 0.225 0.888217 0.0139901 0.456518
0.574156 0.1 0.0375 0.880567 0.0145744 0.444525
0.574157 0.1 -0.0375 0.880569 0.0145334 0.438927
0.467897 0.1 -0.3375 0.895439 0.0131143 0.423753
0.467897 0.1 0.3375 0.895933 0.0132897 0.460673
0 0.1 -0.58201 0.898794 0 0.438371
0 0.1 0.58201 0.898794 0 0.438371
0.0363518 0.1 -0.58201 0.901484 0.00700391 0.436509
0.0363518 0.1 0.58201 0.901555 0.00695597 0.441439
0.574157 0.1 -0.1125 0.880991 0.0144737 0.43338
0.574157 0.1 0.1125 0.880981 0.0145912 0.450081
0.287374 0.1 -0.525 0.908414 0.0128357 0.425684
0.287374 0.1 0.525 0.909416 0.0127961 0.457418
0 0.1 -0.6 0.898794 0 0.438371
0 0.1 0.6 0.898794 0 0.438371
0.350249 0.1 0.4875 0.906741 0.0124123 0.460193
0.350249 0.1 -0.4875 0.905674 0.0124099 0.423693
0.522865 0.1 -0.3 0.889216 0.0136847 0.422969
0.522865 0.1 0.3 0.889459 0.0139121 0.461035
0.219992 0.1 -0.5625 0.911095 0.0133325 0.428196
0.219992 0.1 0.5625 0.911946 0.0132571 0.454047
0.574156 0.1 -0.1875 0.881812 0.0143897 0.427969
0.574156 0.1 0.1875 0.881794 0.0145783 0.455509
0.411108 0.1 0.45 0.902123 0.0127719 0.462509
0.411108 0.1 -0.45 0.901177 0.0126819 0.421664
0 0.1 -0.61799 0.898794 0 0.438371
0 0.1 0.61799 0.898794 0 0.438371
0.150379 0.1 -0.6 0.907935 0.0139836 0.430816
0.150379 0.1 0.6 0.908457 0.0138871 0.449841
0.0363518 0.1 -0.61799 0.901497 0.00698446 0.436251
0.0363518 0.1 0.61799 0.90156 0.0069324 0.441614
0.467897 0.1 -0.4125 0.896595 0.0129698 0.420171
0.467897 0.1 0.4125 0.897372 0.0131335 0.464218
0.623803 0.1 2.34188e-17 0.873319 0.0154472 0.441161
0.623803 0.1 0.075 0.873523 0.015478 0.447436
0.623803 0.1 -0.075 0.873613 0.0153835 0.434906
0.574156 0.1 0.2625 0.883007 0.0145217 0.460735
0.574156 0.1 -0.2625 0.882989 0.0142706 0.422794
0.623803 0.1 0.15 0.874216 0.0154713 0.453625
0.623803 0.1 -0.15 0.874388 0.015285 0.428776
0.075776 0.1 0.6375 0.904614 0.0145843 0.445126
0.075776 0.1 -0.6375 0.90448 0.0146902 0.433945
0.522865 0.1 -0.375 0.890565 0.0135245 0.418754
0.522865 0.1 0.375 0.891025 0.0137697 0.465282
0 0.1 0.65701 0.898794 0 0.438371
0 0.1 -0.65701 0.898794 0 0.438371
0.0363518 0.1 0.65701 0.90156 0.0069324 0.441614
0.0363518 0.1 -0.65701 0.901497 0.00698446 0.436251
0.350249 0.1 0.5625 0.907656 0.0121976 0.462213
0.350249 0.1 -0.5625 0.906384 0.0122527 0.421501
0.623803 0.1 0.225 0.875384 0.0154202 0.459628
0.623803 0.1 -0.225 0.875606 0.0151424 0.422871
0.287374 0.1 -0.6 0.908937 0.0127188 0.423978
0.287374 0.1 0.6 0.910062 0.0126339 0.458885
0.574157 0.1 -0.3375 0.884467 0.0140999 0.417907
0.574157 0.1 0.3375 0.884627 0.0143994 0.465699
0.411108 0.1 0.525 0.903401 0.01255 0.465117
0.411108 0.1 -0.525 0.902173 0.0125102 0.418956
0.67013 0.1 0.0375 0.866287 0.0163322 0.444095
0.67013 0.1 -0.0375 0.866375 0.0162767 0.437135
0.219992 0.1 -0.6375 0.911401 0.0132566 0.426947
0.219993 0.1 0.6375 0.912319 0.0131491 0.454986
0 0.1 -0.675 0.898794 0 0.438371
0 0.1 0.675 0.898794 0 0.438371
0.467897 0.1 -0.4875 0.897834 0.012788 0.416912
0.467897 0.1 0.4875 0.89895 0.0129157 0.46744
0.67013 0.1 -0.1125 0.867032 0.0161788 0.430271
0.67013 0.1 0.1125 0.866778 0.0163417 0.451031
0.522865 0.1 0.45 0.892845 0.0135616 0.46919
0.522865 0.1 -0.45 0.892072 0.0133166 0.414907
0.150379 0.1 0.675 0.908657 0.0138081 0.450438
0.150379 0.1 -0.675 0.90811 0.0139238 0.429968
0.623803 0.1 0.3 0.877023 0.0153099 0.465366
0.623803 0.1 -0.3 0.877214 0.0149463 0.417288
0 0.1 -0.69299 0.898794 0 0.438371
0 0.1 0.69299 0.898794 0 0.438371
0.0363518 0.1 -0.69299 0.901512 0.00696417 0.436021
0.0363518 0.1 0.69299 0.90157 0.00690871 0.441761
0.67013 0.1 -0.1875 0.868221 0.0160288 0.423619
0.67013 0.1 0.1875 0.867825 0.0163023 0.457818
0.574156 0.1 0.4125 0.886608 0.0142075 0.470318
0.574157 0.1 -0.4125 0.886186 0.0138713 0.413429
0.714971 0.1 -2.8382e-17 0.858338 0.0174549 0.43982
0.075776 0.1 -0.7125 0.904512 0.0146487 0.433467
0.075776 0.1 0.7125 0.904635 0.014536 0.445431
0.714971 0.1 -0.075 0.858813 0.0173537 0.4322
0.714971 0.1 0.075 0.858527 0.0174969 0.447497
0.67013 0.1 0.2625 0.869413 0.0162079 0.464342
0.67013 0.1 -0.2625 0.86989 0.0158145 0.417282
0.411108 0.1 -0.6 0.903182 0.0123159 0.416566
0.411108 0.1 0.6 0.904662 0.0123045 0.467384
0.350249 0.1 0.6375 0.908516 0.0119837 0.463916
0.350249 0.1 -0.6375 0.907077 0.0120856 0.419576
0.623803 0.1 0.375 0.879112 0.0151273 0.470756
0.623803 0.1 -0.375 0.879152 0.014692 0.412121
0.714971 0.1 -0.15 0.859922 0.0171895 0.424766
0.714971 0.1 0.15 0.859378 0.0174768 0.45509
0.467897 0.1 -0.5625 0.899121 0.0125725 0.414017
0.467897 0.1 0.5625 0.900576 0.0126511 0.4703
0 0.1 -0.73201 0.898794 0 0.438371
0 0.1 0.73201 0.898794 0 0.438371
0.0363518 0.1 0.73201 0.90157 0.00690871 0.441761
0.0363518 0.1 -0.73201 0.901512 0.00696417 0.436021
0.287374 0.1 -0.675 0.909448 0.0125939 0.422488
0.287374 0.1 0.675 0.910679 0.0124724 0.460089
0.522865 0.1 -0.525 0.893685 0.0130712 0.411468
0.522865 0.1 0.525 0.894823 0.0132919 0.472704
0.219993 0.1 -0.7125 0.911725 0.0131765 0.425852
0.219992 0.1 0.7125 0.912699 0.0130402 0.455741
0.714971 0.1 -0.225 0.861618 0.0169517 0.417643
0.714971 0.1 0.225 0.860866 0.0173921 0.462461
0 0.1 0.75 0.898794 0 0.438371
0 0.1 -0.75 0.898794 0 0.438371
0.67013 0.1 -0.3375 0.871979 0.0155378 0.411386
0.67013 0.1 0.3375 0.871534 0.0160417 0.470534
0.574156 0.1 -0.4875 0.888076 0.0135981 0.409396
0.574157 0.1 0.4875 0.888864 0.0139425 0.474523
0.756813 0.1 0.0375 0.850507 0.0186067 0.443241
0.756814 0.1 -0.0375 0.85071 0.0185177 0.434861
0.150379 0.1 0.746002 0.908776 0.0137471 0.450795
0.150379 0.1 -0.75 0.908296 0.0138624 0.429228
0.756813 0.1 -0.1125 0.851656 0.0183571 0.426631
0.756813 0.1 0.1125 0.851065 0.01862 0.451624
0 0.1 0.76799 0.898794 0 0.438371
0 0.1 -0.76799 0.898794 0 0.438371
0.0363518 0.1 0.76799 0.901581 0.00688812 0.441876
0.0363518 0.1 -0.76799 0.901528 0.00694519 0.435821
0.623803 0.1 -0.45 0.881348 0.0143838 0.407448
0.623803 0.1 0.45 0.881584 0.014869 0.475715
0.714971 0.1 -0.3 0.863842 0.0166416 0.410968
0.714971 0.1 0.3 0.862972 0.0172347 0.469499
0.756814 0.1 -0.1875 0.853288 0.0181114 0.418685
0.756814 0.1 0.1875 0.852366 0.0185565 0.459842
0.67013 0.1 -0.4125 0.874422 0.0152009 0.406015
0.67013 0.1 0.4125 0.874146 0.0157936 0.476274
0.411108 0.1 0.675 0.905892 0.0120521 0.469281
0.411108 0.1 -0.675 0.904203 0.0121103 0.414498
0.467897 0.1 0.6375 0.902189 0.0123649 0.47275
0.467897 0.1 -0.6375 0.900442 0.0123378 0.411496
0.075776 0.1 0.7875 0.904658 0.0144941 0.445672
0.075776 0.1 -0.7875 0.904544 0.01461 0.43305
0.350249 0.1 -0.7125 0.90778 0.0119134 0.417914
0.350249 0.1 0.7125 0.90935 0.0117729 0.465303
0.522865 0.1 -0.6 0.895369 0.0127983 0.40846
0.522865 0.1 0.6 0.896869 0.012978 0.475776
0.797314 0.1 -3.59473e-17 0.842097 0.0200218 0.438079
0.287374 0.1 0.746002 0.911289 0.0123298 0.460916
0.797314 0.1 -0.075 0.842804 0.019859 0.429043
0.797314 0.1 0.075 0.842246 0.0200922 0.447214
0.756814 0.1 -0.2625 0.855566 0.017774 0.411169
0.756814 0.1 0.2625 0.854373 0.0184163 0.467752
0.287374 0.1 -0.75 0.909972 0.0124651 0.421206
0.574156 0.1 -0.5625 0.890085 0.0132909 0.405852
0.574156 0.1 0.5625 0.891287 0.0136136 0.478257
0 0.1 0.80701 0.898794 0 0.438371
0 0.1 -0.80701 0.898794 0 0.438371
0.714971 0.1 -0.375 0.866514 0.0162644 0.404849
0.714971 0.1 0.375 0.865663 0.0169927 0.476103
0.0363518 0.1 0.80701 0.901581 0.00688812 0.441876
0.0363518 0.1 -0.80701 0.901528 0.00694519 0.435821
0.797314 0.1 -0.15 0.844318 0.0195984 0.420261
0.797314 0.1 0.15 0.843252 0.0200676 0.456273
0.623803 0.1 -0.525 0.883729 0.0140339 0.403314
0.623803 0.1 0.525 0.884343 0.0145374 0.480179
0.219992 0.1 0.7875 0.913086 0.0129291 0.456324
0.219992 0.1 -0.7875 0.912064 0.0130928 0.424908
0.149792 0.1 0.80701 0.909014 0.0136735 0.451188
0 0.1 0.825 0.898794 0 0.438371
0 0.1 -0.825 0.898794 0 0.438371
0.797314 0.1 -0.225 0.846593 0.0192336 0.411894
0.797314 0.1 0.225 0.845086 0.0199479 0.465082
0.756813 0.1 -0.3375 0.858401 0.0173667 0.404255
0.756813 0.1 0.3375 0.857063 0.0181893 0.475231
0.67013 0.1 0.4875 0.877161 0.0154679 0.481509
0.67013 0.1 -0.4875 0.877124 0.0148108 0.401234
0.835106 0.1 -0.0375 0.834024 0.0213581 0.432209
0.835106 0.1 0.0375 0.83366 0.0215043 0.442061
0.150379 0.1 -0.825 0.908485 0.0138013 0.428597
0.835106 0.1 -0.1125 0.835331 0.0211053 0.42257
0.835106 0.1 0.1125 0.834264 0.0215363 0.451942
0 0.1 -0.84299 0.898794 0 0.438371
0 0.1 0.84299 0.898794 0 0.438371
0.0363518 0.1 -0.84299 0.901541 0.00692866 0.435652
0.0363518 0.1 0.84299 0.901591 0.00687089 0.441958
0.714971 0.1 -0.45 0.869544 0.0158265 0.399361
0.714971 0.1 0.45 0.868871 0.0166628 0.482169
0.411108 0.1 0.746002 0.907087 0.0118067 0.470652
0.797314 0.1 -0.3 0.84956 0.0187787 0.404112
0.797314 0.1 0.3 0.847708 0.0197295 0.473487
0.467897 0.1 -0.7125 0.901784 0.0120923 0.409354
0.467897 0.1 0.7125 0.903769 0.0120699 0.474769
0.522865 0.1 0.675 0.898919 0.01264 0.478367
0.522865 0.1 -0.675 0.897095 0.0125088 0.405895
0.411108 0.1 -0.75 0.905236 0.0118979 0.412749
0.835106 0.1 -0.1875 0.837487 0.0207255 0.413301
0.835107 0.1 0.1875 0.835821 0.0214559 0.461649
0.286844 0.1 0.80701 0.911756 0.0121877 0.461617
0.574156 0.1 0.6375 0.893776 0.0132409 0.481468
0.574157 0.1 -0.6375 0.892172 0.0129604 0.402807
0.350249 0.1 -0.7875 0.908494 0.0117383 0.416511
0.350249 0.1 0.7875 0.910172 0.0115601 0.466389
0.756813 0.1 -0.4125 0.861697 0.0168837 0.397992
0.756814 0.1 0.4125 0.860385 0.017865 0.482193
0.623803 0.1 -0.6 0.886236 0.0136547 0.399748
0.623803 0.1 0.6 0.887278 0.0141424 0.484083
0.075776 0.1 0.8625 0.904678 0.014459 0.445842
0.075776 0.1 -0.8625 0.904572 0.0145764 0.432698
0.871687 0.1 -3.2767e-18 0.825034 0.0230937 0.436008
0.287374 0.1 -0.825 0.910504 0.0123334 0.42013
0.871687 0.1 -0.075 0.82601 0.0228395 0.425518
0.871687 0.1 0.075 0.825123 0.0232151 0.446648
0.67013 0.1 -0.5625 0.880017 0.0143862 0.397082
0.67013 0.1 0.5625 0.880474 0.0150637 0.486153
0.835106 0.1 0.2625 0.838283 0.0212624 0.471007
0.835106 0.1 -0.2625 0.840501 0.020234 0.404601
0.797314 0.1 -0.375 0.853102 0.018243 0.39703
0.797314 0.1 0.375 0.851072 0.0194057 0.481365
0 0.1 -0.88201 0.898794 0 0.438371
0 0.1 0.88201 0.898794 0 0.438371
0.0363518 0.1 0.88201 0.901591 0.00687089 0.441958
0.0363518 0.1 -0.88201 0.901541 0.00692866 0.435652
0.871687 0.1 0.15 0.826281 0.0231982 0.457221
0.871687 0.1 -0.15 0.82798 0.0224507 0.415365
0.714971 0.1 0.525 0.872494 0.0162485 0.487616
0.714971 0.1 -0.525 0.872841 0.015344 0.394566
0.219993 0.1 0.8625 0.913472 0.0128156 0.456753
0.219992 0.1 -0.8625 0.912408 0.013007 0.424118
0 0.1 0.9 0.898794 0 0.438371
0 0.1 -0.9 0.898794 0 0.438371
0.756813 0.1 0.4875 0.864241 0.0174468 0.488481
0.756814 0.1 -0.4875 0.865347 0.0163471 0.392483
0.871687 0.1 0.225 0.828473 0.0230448 0.46752
0.871687 0.1 -0.225 0.8309 0.0219252 0.40573
0.835106 0.1 -0.3375 0.844217 0.0196555 0.396636
0.835106 0.1 0.3375 0.841594 0.0209516 0.479836
0.41063 0.1 0.80701 0.908005 0.0116022 0.471724
0.90582 0.1 -0.0375 0.816729 0.0245867 0.429225
0.905821 0.1 0.0375 0.816199 0.0248213 0.440592
0.522865 0.1 0.746002 0.900912 0.0123012 0.480286
0.150379 0.1 0.9 0.909275 0.0135801 0.451518
0.90582 0.1 0.1125 0.816848 0.0248922 0.452013
0.905821 0.1 -0.1125 0.818426 0.0242067 0.418167
0.522865 0.1 -0.75 0.898839 0.0122095 0.403769
0.574156 0.1 0.7125 0.896259 0.0128466 0.484124
0.574156 0.1 -0.7125 0.894298 0.0126169 0.400272
0.797314 0.1 -0.45 0.85711 0.0176372 0.390737
0.797314 0.1 0.45 0.855099 0.0189761 0.48859
0.467897 0.1 -0.7875 0.903132 0.0118388 0.407582
0.467897 0.1 0.7875 0.90532 0.0117716 0.476357
0.150379 0.1 -0.903998 0.908743 0.0137301 0.428022
0 0.1 0.91799 0.898794 0 0.438371
0 0.1 -0.91799 0.898794 0 0.438371
0.0363518 0.1 0.91799 0.901597 0.00685668 0.442006
0.0363518 0.1 -0.91799 0.901551 0.00691351 0.435515
0.623803 0.1 0.675 0.890281 0.0137045 0.487382
0.623803 0.1 -0.675 0.888816 0.013257 0.396759
0.411108 0.1 -0.825 0.906271 0.0116821 0.411312
0.871687 0.1 0.3 0.831638 0.0227551 0.477348
0.871687 0.1 -0.3 0.834695 0.0212842 0.396815
0.67013 0.1 -0.6375 0.883026 0.0139363 0.393577
0.67013 0.1 0.6375 0.883953 0.0145929 0.49015
0.90582 0.1 -0.1875 0.82113 0.0236679 0.407558
0.90582 0.1 0.1875 0.818663 0.0248016 0.463255
0.350249 0.1 0.8625 0.910978 0.0113471 0.467179
0.350249 0.1 -0.8625 0.909207 0.0115603 0.415361
0.835106 0.1 -0.4125 0.848513 0.0189873 0.389481
0.835106 0.1 0.4125 0.845706 0.0205218 0.48804
0.714971 0.1 -0.6 0.876318 0.0148324 0.390492
0.714971 0.1 0.6 0.876405 0.015756 0.492381
0.93886 0.1 -1.15648e-17 0.807452 0.0269107 0.433679
0.075776 0.1 0.9375 0.904692 0.0144301 0.445941
0.075776 0.1 -0.9375 0.904594 0.0145455 0.432412
0.93886 0.1 0.075 0.807456 0.0271097 0.445897
0.93886 0.1 -0.075 0.808755 0.0265276 0.421677
0.756813 0.1 0.5625 0.868517 0.0169411 0.494069
0.756814 0.1 -0.5625 0.869257 0.0157737 0.387765
0.905821 0.1 -0.2625 0.824921 0.0229812 0.397631
0.905821 0.1 0.2625 0.821588 0.0245534 0.474103
0.287374 0.1 0.9 0.912486 0.0119831 0.462281
0.287374 0.1 -0.903998 0.91095 0.0121965 0.419232
0.871687 0.1 0.375 0.835711 0.022331 0.486543
0.871687 0.1 -0.375 0.839199 0.0205462 0.38876
0.93886 0.1 -0.15 0.811234 0.0259718 0.410102
0.93886 0.1 0.15 0.808754 0.0271128 0.458054
0.797314 0.1 0.525 0.859668 0.0184482 0.495055
0.797314 0.1 -0.525 0.861466 0.016984 0.385307
0 0.1 0.95701 0.898794 0 0.438371
0 0.1 -0.95701 0.898794 0 0.438371
0.0363518 0.1 0.95701 0.901597 0.00685668 0.442006
0.0363518 0.1 -0.95701 0.901551 0.00691351 0.435515
0.522433 0.1 0.80701 0.902464 0.0120237 0.481732
0.219992 0.1 0.9375 0.913845 0.0127035 0.457027
0.219992 0.1 -0.9375 0.912744 0.0129189 0.423479
0.93886 0.1 0.225 0.81131 0.0269241 0.469909
0.93886 0.1 -0.225 0.814864 0.0252381 0.399131
0.90582 0.1 0.3375 0.825534 0.0241494 0.484341
0.905821 0.1 -0.3375 0.829557 0.0221798 0.388593
0.835106 0.1 -0.4875 0.85327 0.0182582 0.383259
0.835107 0.1 0.4875 0.850499 0.0199792 0.495448
0.969689 0.1 -0.0375 0.799037 0.0288767 0.425985
0.969689 0.1 0.0375 0.798275 0.0292355 0.438971
0.61613 0.1 0.75 0.893278 0.0132448 0.490053
0.574156 0.1 -0.7875 0.896425 0.0122662 0.398229
0.574156 0.1 0.7875 0.898704 0.0124437 0.486221
0 0.1 0.975 0.898794 0 0.438371
0 0.1 -0.975 0.898794 0 0.438371
0.623803 0.1 -0.75 0.891415 0.0128499 0.39434
0.969689 0.1 -0.1125 0.80125 0.0283211 0.413424
0.969689 0.1 0.1125 0.798936 0.0293649 0.452029
0.522865 0.1 -0.825 0.900571 0.0119057 0.402069
0.67013 0.1 0.7125 0.88748 0.014083 0.493456
0.67013 0.1 -0.7125 0.886086 0.0134741 0.39072
0.871687 0.1 -0.45 0.844283 0.019732 0.381672
0.871687 0.1 0.45 0.840603 0.0217758 0.494973
0.467897 0.1 0.8625 0.906836 0.0114735 0.477528
0.467897 0.1 -0.8625 0.904468 0.0115854 0.406173
0.714971 0.1 -0.675 0.879886 0.0143035 0.387145
0.714971 0.1 0.675 0.880466 0.0152018 0.496405
0.93886 0.1 -0.3 0.819583 0.02435 0.389008
0.93886 0.1 0.3 0.815046 0.0265495 0.481226
0.150379 0.1 0.975 0.909464 0.0135102 0.451649
0.150379 0.1 -0.975 0.908848 0.0136812 0.427662
0.969689 0.1 -0.1875 0.804538 0.0275772 0.401389
0.969689 0.1 0.1875 0.801 0.0292667 0.464897
0.411108 0.1 0.9 0.909428 0.0112853 0.472787
0.756813 0.1 0.6375 0.873061 0.0163555 0.49887
0.756814 0.1 -0.6375 0.873319 0.0151802 0.383858
0.990306 0.1 -2.19732e-17 0.793555 0.0302325 0.431698
0 0.1 0.99299 0.898794 0 0.438371
0 0.1 -0.99299 0.898794 0 0.438371
0.411108 0.1 -0.903998 0.907147 0.0114854 0.410172
0.990306 0.1 -0.075 0.795129 0.0297295 0.418528
0.990306 0.1 0.075 0.793488 0.0305088 0.445143
0.0363518 0.1 0.99299 0.9016 0.00684401 0.442019
0.0363518 0.1 -0.99299 0.901559 0.00689965 0.435408
0.90582 0.1 -0.4125 0.834898 0.0212824 0.380558
0.905821 0.1 0.4125 0.830437 0.0236004 0.493813
0.797314 0.1 -0.6 0.86605 0.0163034 0.38077
0.797314 0.1 0.6 0.864638 0.0178283 0.500696
0.350249 0.1 0.9375 0.911761 0.0111364 0.467698
0.350249 0.1 -0.9375 0.909908 0.0113801 0.414456
0.990306 0.1 0.15 0.794898 0.0305411 0.458528
0.990306 0.1 -0.15 0.798027 0.029032 0.405859
0.969689 0.1 -0.2625 0.809258 0.0266179 0.390112
0.969689 0.1 0.2625 0.804411 0.0289498 0.477319
0.835106 0.1 -0.5625 0.858343 0.0174906 0.378009
0.835106 0.1 0.5625 0.85582 0.0193383 0.501994
0.93886 0.1 -0.375 0.825155 0.023348 0.379934
0.93886 0.1 0.375 0.81987 0.0259992 0.491794
0.075776 0.1 1.0125 0.904699 0.0144044 0.445968
0.075776 0.1 -1.0125 0.904611 0.0145173 0.43219
0.990306 0.1 -0.225 0.802239 0.0281167 0.393824
0.990306 0.1 0.225 0.797748 0.030335 0.471591
0.287374 0.1 0.975 0.913054 0.0118217 0.462576
0.287374 0.1 -0.975 0.911544 0.0120634 0.418577
0.871687 0.1 -0.525 0.849798 0.0188699 0.375635
0.871687 0.1 0.525 0.846175 0.0210994 0.502498
1.02149 0.1 -0.0369628 0.783636 0.0325948 0.423068
1.02149 0.1 0.0369628 0.78273 0.0330706 0.437173
0.969689 0.1 -0.3375 0.814965 0.0255201 0.379893
0.969689 0.1 0.3375 0.809058 0.0284228 0.489039
1.02149 0.1 -0.110888 0.786161 0.0318898 0.409517
1.02149 0.1 0.110888 0.783411 0.0332759 0.451355
0.90582 0.1 0.4875 0.836174 0.0229052 0.502413
0.90582 0.1 -0.4875 0.840809 0.0203269 0.373643
0.623803 0.1 0.819003 0.895357 0.0129126 0.49244
0 0.1 1.03201 0.898794 0 0.438371
0 0.1 -1.03201 0.898794 0 0.438371
0.0363518 0.1 1.03201 0.9016 0.00684401 0.442019
0.0363518 0.1 -1.03201 0.901559 0.00689965 0.435408
0.67013 0.1 -0.7875 0.889137 0.0130064 0.388489
0.67013 0.1 0.7875 0.890975 0.0135558 0.496059
0.623803 0.1 -0.825 0.893985 0.0124393 0.39247
0.990306 0.1 -0.3 0.807724 0.0270109 0.382739
0.990306 0.1 0.3 0.801949 0.0298991 0.484067
0.219992 0.1 -1.0125 0.913064 0.0128295 0.422988
0.219993 0.1 1.0125 0.914193 0.0125945 0.457143
0.574156 0.1 0.8625 0.901086 0.0120386 0.487772
0.574157 0.1 -0.8625 0.898514 0.0119126 0.396662
0.714971 0.1 -0.75 0.883468 0.013767 0.384512
0.714971 0.1 0.75 0.884557 0.0146107 0.499657
1.02149 0.1 0.184814 0.785655 0.0332113 0.465353
1.02149 0.1 -0.184814 0.789935 0.0310084 0.396488
0.756814 0.1 -0.7125 0.877425 0.0145755 0.380753
0.756814 0.1 0.7125 0.877718 0.0157099 0.502838
0.522865 0.1 0.9 0.904847 0.011588 0.483202
0.93886 0.1 -0.45 0.831433 0.0222647 0.37204
0.93886 0.1 0.45 0.825679 0.0252816 0.501471
1.04168 0.1 0 0.776741 0.0345808 0.429171
1.04168 0.1 -0.0729162 0.778528 0.0339315 0.41496
1.04168 0.1 0.0729162 0.776591 0.0349636 0.443722
0.522865 0.1 -0.903998 0.902045 0.0116339 0.40078
0.797314 0.1 -0.675 0.870738 0.0156114 0.377129
0.797314 0.1 0.675 0.869848 0.0171286 0.505449
0.467897 0.1 0.9375 0.908303 0.0111782 0.478303
0.467897 0.1 -0.9375 0.905769 0.0113283 0.405107
0 0.1 1.05 0.898794 0 0.438371
0 0.1 -1.05 0.898794 0 0.438371
0.835106 0.1 -0.6375 0.863595 0.0167092 0.37375
0.835106 0.1 0.6375 0.861524 0.018596 0.507596
1.04168 0.1 -0.145832 0.781801 0.0330808 0.401317
1.04168 0.1 0.145832 0.778045 0.0350595 0.458216
1.02149 0.1 -0.25874 0.795257 0.0298219 0.384172
1.02149 0.1 0.25874 0.789401 0.0328845 0.478894
0.969689 0.1 -0.4125 0.821539 0.0243165 0.370913
0.969689 0.1 0.4125 0.81484 0.0277057 0.499851
0.411108 0.1 0.975 0.910536 0.0110321 0.473279
0.411108 0.1 -0.975 0.908277 0.0112437 0.409332
0.871687 0.1 -0.6 0.855583 0.0179843 0.370679
0.871687 0.1 0.6 0.852256 0.0203138 0.509023
1.0579 0.1 -0.0360525 0.772205 0.0357095 0.420902
1.0579 0.1 0.0360525 0.771187 0.0362765 0.435696
0.990306 0.1 -0.375 0.814194 0.0257799 0.372882
0.990306 0.1 0.375 0.807386 0.0292489 0.495715
0.150379 0.1 1.05 0.909637 0.013443 0.45167
0.150379 0.1 -1.05 0.909014 0.0136227 0.427353
1.0579 0.1 0.108157 0.771801 0.0365454 0.450574
1.0579 0.1 -0.108157 0.774872 0.0348889 0.40672
1.04168 0.1 -0.218749 0.786495 0.0319699 0.388262
1.04168 0.1 0.218749 0.781063 0.0348734 0.472394
0.90582 0.1 -0.5625 0.847095 0.0193373 0.367899
0.90582 0.1 0.5625 0.842585 0.0220831 0.509931
0 0.1 -1.06799 0.898794 0 0.438371
0 0.1 1.06799 0.898794 0 0.438371
0.0363518 0.1 -1.06799 0.901565 0.00688874 0.435331
0.0363518 0.1 1.06799 0.901602 0.0068315 0.442003
0.350249 0.1 1.0125 0.91251 0.010927 0.467961
0.350249 0.1 -1.0125 0.910585 0.0111982 0.413788
1.0579 0.1 -0.180262 0.778953 0.0339005 0.393074
1.0579 0.1 0.180262 0.774026 0.0365176 0.465279
1.02149 0.1 -0.332665 0.801767 0.0285055 0.373138
1.02149 0.1 0.332665 0.794531 0.0323049 0.49171
0.93886 0.1 -0.525 0.838226 0.021133 0.365418
0.93886 0.1 0.525 0.832321 0.0244106 0.510094
1.08012 0.1 5.49329e-18 0.764267 0.0382267 0.427154
1.04168 0.1 -0.291665 0.792597 0.0306199 0.376227
1.04168 0.1 0.291665 0.785561 0.0344121 0.485983
1.08012 0.1 0.0709941 0.764028 0.038696 0.442438
1.08012 0.1 -0.0709941 0.766181 0.0374631 0.412238
0.969689 0.1 -0.4875 0.828795 0.0230478 0.363289
0.96969 0.1 0.4875 0.821631 0.0268013 0.509644
1.0579 0.1 0.252367 0.777806 0.0361982 0.479535
1.0579 0.1 -0.252367 0.784507 0.0325456 0.380099
0.990306 0.1 -0.45 0.821481 0.0244594 0.364372
0.990306 0.1 0.45 0.813938 0.0283973 0.506366
0.287374 0.1 -1.05 0.912032 0.0119268 0.418086
0.287374 0.1 1.05 0.913589 0.0116629 0.462673
0.714971 0.1 0.821002 0.888238 0.0140619 0.502094
1.08012 0.1 -0.141988 0.769685 0.036487 0.397925
1.08012 0.1 0.141988 0.765442 0.0388516 0.457673
0.075776 0.1 1.0875 0.904703 0.0143789 0.445936
0.075776 0.1 -1.0875 0.904624 0.0144951 0.432028
0.714971 0.1 -0.825 0.886994 0.0132321 0.382561
0.756813 0.1 -0.7875 0.881498 0.0139693 0.378421
0.756814 0.1 0.7875 0.882365 0.0150334 0.505951
0.67013 0.1 -0.8625 0.892116 0.0125403 0.386856
0.67013 0.1 0.8625 0.894388 0.0130258 0.497978
0.797314 0.1 -0.75 0.875418 0.0149196 0.374355
0.797314 0.1 0.75 0.87514 0.0163762 0.509278
0.623803 0.1 0.9 0.899072 0.0123108 0.493542
0.835106 0.1 -0.7125 0.868892 0.0159266 0.370462
0.835106 0.1 0.7125 0.867423 0.0177761 0.512213
0.623803 0.1 -0.903998 0.89618 0.0120777 0.39112
0.574156 0.1 0.9375 0.903378 0.0116367 0.488798
0.574156 0.1 -0.9375 0.900535 0.0115619 0.395541
1.02149 0.1 -0.406591 0.809271 0.0270546 0.363508
1.02149 0.1 0.406591 0.80091 0.0314954 0.503561
1.08012 0.1 -0.212982 0.774664 0.0352227 0.38419
1.08012 0.1 0.212982 0.768474 0.0386969 0.472604
1.10076 0.1 -0.0349809 0.757574 0.0401096 0.418219
1.10076 0.1 0.0349809 0.756454 0.0407923 0.433879
0.871687 0.1 -0.675 0.861482 0.0170982 0.366803
0.871687 0.1 0.675 0.858653 0.0194338 0.5145
1.04168 0.1 -0.364581 0.799839 0.0291336 0.365596
1.04168 0.1 0.364581 0.791408 0.0336924 0.498719
1.10076 0.1 -0.104943 0.760397 0.0391363 0.403236
1.10076 0.1 0.104943 0.757027 0.0411461 0.449607
0.522865 0.1 0.975 0.906694 0.01124 0.48389
0.522865 0.1 -0.975 0.903896 0.0112965 0.399868