# Force coefficients
# liftDir     : (0.000000e+00 0.000000e+00 1.000000e+00)
# dragDir     : (1.000000e+00 0.000000e+00 0.000000e+00)
# pitchAxis   : (0.000000e+00 1.000000e+00 0.000000e+00)
# magUInf     : 1.000000e+00
# lRef        : 1.000000e+00
# Aref        : 1.000000e+00
# CofR        : (2.500000e+00 0.000000e+00 0.000000e+00)
#
# Time        	Cm            	Cd            	Cl            	Cl(f)         	Cl(r)         
1             	-2.119832e-04	6.700007e-01	-1.766370e-02	-9.043835e-03	-8.619868e-03
2             	-3.336273e-04	1.033695e+00	1.112291e-03	2.225180e-04	8.897727e-04
3             	-2.846054e-04	1.420507e+00	5.883909e-02	2.913494e-02	2.970415e-02
4             	3.577166e-04	1.582084e+00	1.391030e-01	6.990924e-02	6.919381e-02
5             	1.421649e-03	1.528147e+00	2.276044e-01	1.152238e-01	1.123805e-01
6             	2.436200e-03	1.354882e+00	3.180138e-01	1.614431e-01	1.565707e-01
7             	3.221558e-03	1.159291e+00	4.061028e-01	2.062730e-01	1.998299e-01
8             	4.115929e-03	1.008947e+00	4.893554e-01	2.487937e-01	2.405618e-01
9             	5.296596e-03	9.288640e-01	5.674217e-01	2.890074e-01	2.784142e-01
10            	6.989366e-03	9.102353e-01	6.420070e-01	3.279929e-01	3.140141e-01
11            	8.502957e-03	9.279551e-01	7.159711e-01	3.664885e-01	3.494826e-01
12            	1.043775e-02	9.578044e-01	7.910615e-01	4.059685e-01	3.850930e-01
13            	1.338888e-02	9.795508e-01	8.673815e-01	4.470796e-01	4.203019e-01
14            	1.722040e-02	9.850789e-01	9.434665e-01	4.889536e-01	4.545128e-01
15            	2.170354e-02	9.756263e-01	1.014502e+00	5.289543e-01	4.855473e-01
16            	2.672399e-02	9.569109e-01	1.079146e+00	5.662969e-01	5.128490e-01
17            	3.174180e-02	9.349863e-01	1.137452e+00	6.004677e-01	5.369841e-01
18            	3.674032e-02	9.150539e-01	1.188867e+00	6.311739e-01	5.576933e-01
19            	4.169777e-02	9.027147e-01	1.233919e+00	6.586571e-01	5.752616e-01
20            	4.597091e-02	9.003261e-01	1.274274e+00	6.831077e-01	5.911659e-01
21            	4.928620e-02	9.073297e-01	1.311220e+00	7.048960e-01	6.063236e-01
22            	5.133609e-02	9.220454e-01	1.344790e+00	7.237312e-01	6.210590e-01
23            	5.173292e-02	9.418160e-01	1.374669e+00	7.390675e-01	6.356017e-01
24            	5.013383e-02	9.632663e-01	1.400349e+00	7.503085e-01	6.500409e-01
25            	4.646130e-02	9.843860e-01	1.421667e+00	7.572950e-01	6.643724e-01
26            	4.074296e-02	1.004951e+00	1.438084e+00	7.597848e-01	6.782989e-01
27            	3.320100e-02	1.025625e+00	1.449368e+00	7.578851e-01	6.914831e-01
28            	2.412285e-02	1.046830e+00	1.455357e+00	7.518014e-01	7.035557e-01
29            	1.401132e-02	1.069111e+00	1.456810e+00	7.424163e-01	7.143937e-01
30            	3.416460e-03	1.092279e+00	1.454828e+00	7.308307e-01	7.239978e-01
31            	-7.115652e-03	1.116187e+00	1.450715e+00	7.182421e-01	7.324734e-01
32            	-1.710319e-02	1.140176e+00	1.445834e+00	7.058140e-01	7.400204e-01
33            	-2.610872e-02	1.163266e+00	1.440822e+00	6.943025e-01	7.465200e-01
34            	-3.389751e-02	1.184607e+00	1.435666e+00	6.839353e-01	7.517303e-01
35            	-4.036720e-02	1.203642e+00	1.430434e+00	6.748499e-01	7.555843e-01
36            	-4.551184e-02	1.219939e+00	1.424929e+00	6.669526e-01	7.579763e-01
37            	-4.939643e-02	1.233729e+00	1.419640e+00	6.604236e-01	7.592165e-01
38            	-5.212329e-02	1.245000e+00	1.416265e+00	6.560094e-01	7.602559e-01
39            	-5.395041e-02	1.254069e+00	1.415501e+00	6.538002e-01	7.617011e-01
40            	-5.521909e-02	1.261345e+00	1.417597e+00	6.535794e-01	7.640176e-01
41            	-5.629142e-02	1.267316e+00	1.422188e+00	6.548027e-01	7.673856e-01
42            	-5.743719e-02	1.272582e+00	1.428167e+00	6.566463e-01	7.715207e-01
43            	-5.880238e-02	1.277508e+00	1.434165e+00	6.582800e-01	7.758847e-01
44            	-6.038791e-02	1.282283e+00	1.438939e+00	6.590817e-01	7.798575e-01
45            	-6.212792e-02	1.287049e+00	1.441468e+00	6.586061e-01	7.828619e-01
46            	-6.389827e-02	1.291719e+00	1.441138e+00	6.566708e-01	7.844673e-01
47            	-6.553790e-02	1.296114e+00	1.437751e+00	6.533375e-01	7.844133e-01
48            	-6.690901e-02	1.299614e+00	1.431078e+00	6.486298e-01	7.824478e-01
49            	-6.780988e-02	1.301981e+00	1.421031e+00	6.427058e-01	7.783256e-01
50            	-6.812056e-02	1.303616e+00	1.407745e+00	6.357521e-01	7.719932e-01
51            	-6.782702e-02	1.304604e+00	1.391748e+00	6.280468e-01	7.637008e-01
52            	-6.697541e-02	1.304978e+00	1.373584e+00	6.198165e-01	7.537673e-01
53            	-6.564951e-02	1.304609e+00	1.354039e+00	6.113702e-01	7.426692e-01
54            	-6.403902e-02	1.303736e+00	1.334345e+00	6.031334e-01	7.312114e-01
55            	-6.226710e-02	1.302662e+00	1.315547e+00	5.955063e-01	7.200405e-01
56            	-6.038781e-02	1.301750e+00	1.298067e+00	5.886459e-01	7.094215e-01
57            	-5.848676e-02	1.301480e+00	1.281901e+00	5.824638e-01	6.994373e-01
58            	-5.662512e-02	1.301832e+00	1.266831e+00	5.767904e-01	6.900407e-01
59            	-5.487035e-02	1.302719e+00	1.252653e+00	5.714563e-01	6.811970e-01
60            	-5.322963e-02	1.304207e+00	1.239161e+00	5.663507e-01	6.728100e-01
61            	-5.167631e-02	1.306367e+00	1.226165e+00	5.614061e-01	6.647587e-01
62            	-5.014131e-02	1.309139e+00	1.213500e+00	5.566086e-01	6.568913e-01
63            	-4.859531e-02	1.312576e+00	1.201086e+00	5.519477e-01	6.491383e-01
64            	-4.697059e-02	1.316569e+00	1.188982e+00	5.475205e-01	6.414617e-01
65            	-4.526077e-02	1.320963e+00	1.177509e+00	5.434936e-01	6.340151e-01
66            	-4.352206e-02	1.325605e+00	1.166913e+00	5.399343e-01	6.269785e-01
67            	-4.183033e-02	1.330341e+00	1.157267e+00	5.368034e-01	6.204640e-01
68            	-4.028216e-02	1.334719e+00	1.148491e+00	5.339636e-01	6.145279e-01
69            	-3.891505e-02	1.338274e+00	1.140512e+00	5.313410e-01	6.091711e-01
70            	-3.774175e-02	1.340700e+00	1.133009e+00	5.287625e-01	6.042460e-01
71            	-3.674986e-02	1.341701e+00	1.125775e+00	5.261377e-01	5.996375e-01
72            	-3.591205e-02	1.341172e+00	1.118939e+00	5.235575e-01	5.953816e-01
73            	-3.513123e-02	1.339178e+00	1.112493e+00	5.211153e-01	5.913778e-01
74            	-3.432076e-02	1.335958e+00	1.106259e+00	5.188090e-01	5.874505e-01
75            	-3.343837e-02	1.331906e+00	1.100101e+00	5.166122e-01	5.834890e-01
76            	-3.247601e-02	1.327476e+00	1.094191e+00	5.146195e-01	5.795715e-01
77            	-3.148652e-02	1.323052e+00	1.089042e+00	5.130343e-01	5.760074e-01
78            	-3.052140e-02	1.319023e+00	1.084934e+00	5.119458e-01	5.729886e-01
79            	-2.963943e-02	1.315529e+00	1.081909e+00	5.113149e-01	5.705937e-01
80            	-2.887263e-02	1.312653e+00	1.079853e+00	5.110541e-01	5.687993e-01
81            	-2.823768e-02	1.310290e+00	1.078628e+00	5.110763e-01	5.675517e-01
82            	-2.772344e-02	1.308234e+00	1.078004e+00	5.112785e-01	5.667253e-01
83            	-2.730357e-02	1.306186e+00	1.077731e+00	5.115619e-01	5.661691e-01
84            	-2.694606e-02	1.303963e+00	1.077602e+00	5.118547e-01	5.657468e-01
85            	-2.660399e-02	1.301494e+00	1.077480e+00	5.121358e-01	5.653438e-01
86            	-2.623243e-02	1.298833e+00	1.077278e+00	5.124064e-01	5.648713e-01
87            	-2.582396e-02	1.296116e+00	1.077005e+00	5.126784e-01	5.643264e-01
88            	-2.539693e-02	1.293481e+00	1.076742e+00	5.129738e-01	5.637677e-01
89            	-2.496617e-02	1.291045e+00	1.076542e+00	5.133048e-01	5.632372e-01
90            	-2.454228e-02	1.288822e+00	1.076344e+00	5.136298e-01	5.627144e-01
91            	-2.412145e-02	1.286802e+00	1.076038e+00	5.138974e-01	5.621403e-01
92            	-2.370446e-02	1.284998e+00	1.075541e+00	5.140658e-01	5.614747e-01
93            	-2.328985e-02	1.283363e+00	1.074829e+00	5.141246e-01	5.607043e-01
94            	-2.287264e-02	1.281893e+00	1.073868e+00	5.140613e-01	5.598066e-01
95            	-2.245688e-02	1.280586e+00	1.072663e+00	5.138748e-01	5.587885e-01
96            	-2.204648e-02	1.279418e+00	1.071233e+00	5.135701e-01	5.576631e-01
97            	-2.165256e-02	1.278389e+00	1.069609e+00	5.131519e-01	5.564570e-01
98            	-2.128302e-02	1.277513e+00	1.067794e+00	5.126138e-01	5.551799e-01
99            	-2.094217e-02	1.276813e+00	1.065786e+00	5.119509e-01	5.538353e-01
100           	-2.063310e-02	1.276278e+00	1.063602e+00	5.111679e-01	5.524341e-01
101           	-2.035710e-02	1.275861e+00	1.061267e+00	5.102766e-01	5.509908e-01
102           	-2.012119e-02	1.275501e+00	1.058823e+00	5.092904e-01	5.495328e-01
103           	-1.993624e-02	1.275130e+00	1.056329e+00	5.082283e-01	5.481008e-01
104           	-1.980589e-02	1.274692e+00	1.053835e+00	5.071116e-01	5.467233e-01
105           	-1.973091e-02	1.274144e+00	1.051382e+00	5.059602e-01	5.454220e-01
106           	-1.971018e-02	1.273463e+00	1.049000e+00	5.047899e-01	5.442103e-01
107           	-1.974206e-02	1.272633e+00	1.046696e+00	5.036061e-01	5.430902e-01
108           	-1.982146e-02	1.271632e+00	1.044474e+00	5.024154e-01	5.420583e-01
109           	-1.994140e-02	1.270450e+00	1.042339e+00	5.012279e-01	5.411107e-01
110           	-2.009445e-02	1.269097e+00	1.040296e+00	5.000536e-01	5.402425e-01
111           	-2.026908e-02	1.267559e+00	1.038350e+00	4.989057e-01	5.394439e-01
112           	-2.045397e-02	1.265815e+00	1.036503e+00	4.977976e-01	5.387055e-01
113           	-2.064274e-02	1.263844e+00	1.034755e+00	4.967347e-01	5.380202e-01
114           	-2.083116e-02	1.261636e+00	1.033111e+00	4.957241e-01	5.373865e-01
115           	-2.101628e-02	1.259191e+00	1.031582e+00	4.947746e-01	5.368072e-01
116           	-2.119470e-02	1.256503e+00	1.030181e+00	4.938960e-01	5.362854e-01
117           	-2.136485e-02	1.253566e+00	1.028925e+00	4.930977e-01	5.358274e-01
118           	-2.152864e-02	1.250413e+00	1.027819e+00	4.923808e-01	5.354380e-01
119           	-2.168940e-02	1.247095e+00	1.026863e+00	4.917421e-01	5.351209e-01
120           	-2.184806e-02	1.243674e+00	1.026066e+00	4.911849e-01	5.348810e-01
121           	-2.200522e-02	1.240219e+00	1.025428e+00	4.907088e-01	5.347192e-01
122           	-2.215999e-02	1.236791e+00	1.024938e+00	4.903090e-01	5.346290e-01
123           	-2.231046e-02	1.233441e+00	1.024567e+00	4.899732e-01	5.345941e-01
124           	-2.245449e-02	1.230206e+00	1.024301e+00	4.896958e-01	5.346048e-01
125           	-2.259108e-02	1.227140e+00	1.024125e+00	4.894713e-01	5.346535e-01
126           	-2.271794e-02	1.224288e+00	1.024028e+00	4.892960e-01	5.347319e-01
127           	-2.283154e-02	1.221636e+00	1.024001e+00	4.891691e-01	5.348322e-01
128           	-2.292873e-02	1.219173e+00	1.024036e+00	4.890890e-01	5.349465e-01
129           	-2.300622e-02	1.216892e+00	1.024117e+00	4.890523e-01	5.350647e-01
130           	-2.306274e-02	1.214807e+00	1.024225e+00	4.890498e-01	5.351753e-01
131           	-2.309921e-02	1.212924e+00	1.024351e+00	4.890761e-01	5.352745e-01
132           	-2.311877e-02	1.211228e+00	1.024476e+00	4.891192e-01	5.353567e-01
133           	-2.312464e-02	1.209722e+00	1.024584e+00	4.891675e-01	5.354168e-01
134           	-2.311819e-02	1.208344e+00	1.024673e+00	4.892181e-01	5.354545e-01
135           	-2.310108e-02	1.207054e+00	1.024740e+00	4.892689e-01	5.354711e-01
136           	-2.307597e-02	1.205860e+00	1.024782e+00	4.893149e-01	5.354668e-01
137           	-2.304714e-02	1.204792e+00	1.024787e+00	4.893466e-01	5.354409e-01
138           	-2.301747e-02	1.203856e+00	1.024753e+00	4.893590e-01	5.353940e-01
139           	-2.298935e-02	1.203045e+00	1.024660e+00	4.893406e-01	5.353193e-01
140           	-2.296263e-02	1.202341e+00	1.024491e+00	4.892829e-01	5.352082e-01
141           	-2.293786e-02	1.201728e+00	1.024228e+00	4.891760e-01	5.350518e-01
142           	-2.291668e-02	1.201193e+00	1.023856e+00	4.890115e-01	5.348449e-01
143           	-2.290119e-02	1.200707e+00	1.023377e+00	4.887874e-01	5.345898e-01
144           	-2.289332e-02	1.200238e+00	1.022787e+00	4.885001e-01	5.342868e-01
145           	-2.289462e-02	1.199762e+00	1.022099e+00	4.881551e-01	5.339444e-01
146           	-2.290696e-02	1.199265e+00	1.021324e+00	4.877551e-01	5.335690e-01
147           	-2.293097e-02	1.198758e+00	1.020469e+00	4.873035e-01	5.331655e-01
148           	-2.296644e-02	1.198264e+00	1.019534e+00	4.868003e-01	5.327332e-01
149           	-2.301448e-02	1.197796e+00	1.018513e+00	4.862422e-01	5.322712e-01
150           	-2.307493e-02	1.197339e+00	1.017413e+00	4.856318e-01	5.317816e-01
151           	-2.314638e-02	1.196871e+00	1.016242e+00	4.849747e-01	5.312674e-01
152           	-2.322790e-02	1.196377e+00	1.015003e+00	4.842734e-01	5.307292e-01
153           	-2.331904e-02	1.195865e+00	1.013687e+00	4.835245e-01	5.301626e-01
154           	-2.342001e-02	1.195351e+00	1.012288e+00	4.827240e-01	5.295641e-01
155           	-2.353110e-02	1.194844e+00	1.010797e+00	4.818672e-01	5.289294e-01
156           	-2.365188e-02	1.194349e+00	1.009199e+00	4.809477e-01	5.282514e-01
157           	-2.378146e-02	1.193869e+00	1.007482e+00	4.799597e-01	5.275226e-01
158           	-2.391954e-02	1.193394e+00	1.005643e+00	4.789020e-01	5.267411e-01
159           	-2.406495e-02	1.192903e+00	1.003679e+00	4.777744e-01	5.259043e-01
160           	-2.421616e-02	1.192387e+00	1.001595e+00	4.765812e-01	5.250135e-01
161           	-2.437374e-02	1.191850e+00	9.993983e-01	4.753254e-01	5.240729e-01
162           	-2.453839e-02	1.191294e+00	9.970963e-01	4.740098e-01	5.230866e-01
163           	-2.470918e-02	1.190721e+00	9.946941e-01	4.726379e-01	5.220563e-01
164           	-2.488762e-02	1.190147e+00	9.921999e-01	4.712123e-01	5.209876e-01
165           	-2.507535e-02	1.189588e+00	9.896187e-01	4.697340e-01	5.198847e-01
166           	-2.527297e-02	1.189062e+00	9.869583e-01	4.682062e-01	5.187521e-01
167           	-2.548057e-02	1.188587e+00	9.842267e-01	4.666328e-01	5.175939e-01
168           	-2.569792e-02	1.188181e+00	9.814314e-01	4.650178e-01	5.164136e-01
169           	-2.592473e-02	1.187864e+00	9.785764e-01	4.633635e-01	5.152129e-01
170           	-2.616156e-02	1.187665e+00	9.756673e-01	4.616721e-01	5.139952e-01
171           	-2.640913e-02	1.187602e+00	9.727093e-01	4.599455e-01	5.127638e-01
172           	-2.666702e-02	1.187706e+00	9.697073e-01	4.581866e-01	5.115207e-01
173           	-2.693617e-02	1.187996e+00	9.666613e-01	4.563945e-01	5.102668e-01
174           	-2.721688e-02	1.188494e+00	9.635768e-01	4.545715e-01	5.090053e-01
175           	-2.750893e-02	1.189224e+00	9.604606e-01	4.527214e-01	5.077392e-01
176           	-2.781043e-02	1.190197e+00	9.573142e-01	4.508467e-01	5.064675e-01
177           	-2.812099e-02	1.191439e+00	9.541462e-01	4.489521e-01	5.051941e-01
178           	-2.844035e-02	1.192945e+00	9.509607e-01	4.470400e-01	5.039207e-01
179           	-2.876797e-02	1.194693e+00	9.477655e-01	4.451148e-01	5.026507e-01
180           	-2.910387e-02	1.196649e+00	9.445619e-01	4.431771e-01	5.013848e-01
181           	-2.944755e-02	1.198785e+00	9.413478e-01	4.412263e-01	5.001214e-01
182           	-2.979768e-02	1.201065e+00	9.381302e-01	4.392674e-01	4.988628e-01
183           	-3.015254e-02	1.203468e+00	9.349120e-01	4.373035e-01	4.976086e-01
184           	-3.051121e-02	1.205975e+00	9.317006e-01	4.353391e-01	4.963615e-01
185           	-3.087177e-02	1.208577e+00	9.285064e-01	4.333814e-01	4.951250e-01
186           	-3.123221e-02	1.211252e+00	9.253595e-01	4.314475e-01	4.939119e-01
187           	-3.159008e-02	1.213972e+00	9.222870e-01	4.295534e-01	4.927336e-01
188           	-3.194244e-02	1.216722e+00	9.193083e-01	4.277117e-01	4.915966e-01
189           	-3.228662e-02	1.219482e+00	9.164454e-01	4.259361e-01	4.905093e-01
190           	-3.262005e-02	1.222214e+00	9.137153e-01	4.242376e-01	4.894777e-01
191           	-3.294045e-02	1.224875e+00	9.111261e-01	4.226226e-01	4.885035e-01
192           	-3.324725e-02	1.227414e+00	9.086828e-01	4.210941e-01	4.875886e-01
193           	-3.354001e-02	1.229777e+00	9.063871e-01	4.196535e-01	4.867335e-01
194           	-3.381779e-02	1.231904e+00	9.042349e-01	4.182997e-01	4.859353e-01
195           	-3.407944e-02	1.233737e+00	9.022340e-01	4.170375e-01	4.851964e-01
196           	-3.432356e-02	1.235232e+00	9.003910e-01	4.158720e-01	4.845191e-01
197           	-3.454909e-02	1.236380e+00	8.987104e-01	4.148061e-01	4.839043e-01
198           	-3.475705e-02	1.237194e+00	8.971918e-01	4.138389e-01	4.833530e-01
199           	-3.494682e-02	1.237711e+00	8.958265e-01	4.129665e-01	4.828601e-01
200           	-3.511719e-02	1.237979e+00	8.945945e-01	4.121800e-01	4.824144e-01
201           	-3.526630e-02	1.238042e+00	8.934754e-01	4.114714e-01	4.820040e-01
202           	-3.539347e-02	1.237930e+00	8.924491e-01	4.108311e-01	4.816180e-01
203           	-3.549886e-02	1.237659e+00	8.914961e-01	4.102492e-01	4.812469e-01
204           	-3.558262e-02	1.237239e+00	8.906077e-01	4.097212e-01	4.808865e-01
205           	-3.564513e-02	1.236670e+00	8.897809e-01	4.092453e-01	4.805356e-01
206           	-3.568725e-02	1.235961e+00	8.890221e-01	4.088238e-01	4.801983e-01
207           	-3.570896e-02	1.235112e+00	8.883301e-01	4.084561e-01	4.798740e-01
208           	-3.571050e-02	1.234128e+00	8.877054e-01	4.081422e-01	4.795632e-01
209           	-3.569277e-02	1.233016e+00	8.871536e-01	4.078840e-01	4.792696e-01
210           	-3.565709e-02	1.231794e+00	8.866720e-01	4.076789e-01	4.789931e-01
211           	-3.560512e-02	1.230477e+00	8.862525e-01	4.075211e-01	4.787314e-01
212           	-3.553781e-02	1.229080e+00	8.858870e-01	4.074057e-01	4.784813e-01
213           	-3.545676e-02	1.227623e+00	8.855696e-01	4.073281e-01	4.782416e-01
214           	-3.536305e-02	1.226119e+00	8.852969e-01	4.072854e-01	4.780115e-01
215           	-3.525774e-02	1.224583e+00	8.850700e-01	4.072773e-01	4.777928e-01
216           	-3.514188e-02	1.223023e+00	8.848867e-01	4.073015e-01	4.775852e-01
217           	-3.501648e-02	1.221446e+00	8.847376e-01	4.073523e-01	4.773853e-01
218           	-3.488332e-02	1.219860e+00	8.846311e-01	4.074322e-01	4.771989e-01
219           	-3.474367e-02	1.218276e+00	8.845613e-01	4.075370e-01	4.770243e-01
220           	-3.459975e-02	1.216707e+00	8.845228e-01	4.076617e-01	4.768611e-01
221           	-3.445408e-02	1.215168e+00	8.845122e-01	4.078020e-01	4.767102e-01
222           	-3.430752e-02	1.213668e+00	8.845201e-01	4.079525e-01	4.765675e-01
223           	-3.416129e-02	1.212216e+00	8.845502e-01	4.081138e-01	4.764364e-01
224           	-3.401675e-02	1.210817e+00	8.845955e-01	4.082810e-01	4.763145e-01
225           	-3.387551e-02	1.209475e+00	8.846457e-01	4.084474e-01	4.761984e-01
226           	-3.373889e-02	1.208189e+00	8.847068e-01	4.086145e-01	4.760923e-01
227           	-3.360749e-02	1.206956e+00	8.847725e-01	4.087787e-01	4.759937e-01
228           	-3.348147e-02	1.205765e+00	8.848381e-01	4.089376e-01	4.759005e-01
229           	-3.336201e-02	1.204628e+00	8.848990e-01	4.090875e-01	4.758115e-01
230           	-3.324955e-02	1.203550e+00	8.849537e-01	4.092273e-01	4.757264e-01
231           	-3.314487e-02	1.202538e+00	8.849964e-01	4.093533e-01	4.756431e-01
232           	-3.304867e-02	1.201594e+00	8.850299e-01	4.094663e-01	4.755636e-01
233           	-3.296152e-02	1.200726e+00	8.850602e-01	4.095686e-01	4.754916e-01
234           	-3.288322e-02	1.199920e+00	8.851092e-01	4.096714e-01	4.754378e-01
235           	-3.281380e-02	1.199171e+00	8.851858e-01	4.097791e-01	4.754067e-01
236           	-3.275370e-02	1.198479e+00	8.853002e-01	4.098964e-01	4.754038e-01
237           	-3.270262e-02	1.197842e+00	8.854432e-01	4.100190e-01	4.754242e-01
238           	-3.266045e-02	1.197264e+00	8.856037e-01	4.101414e-01	4.754623e-01
239           	-3.262715e-02	1.196740e+00	8.857703e-01	4.102580e-01	4.755123e-01
240           	-3.260284e-02	1.196267e+00	8.859280e-01	4.103612e-01	4.755668e-01
241           	-3.258739e-02	1.195841e+00	8.860739e-01	4.104495e-01	4.756243e-01
242           	-3.258038e-02	1.195459e+00	8.862031e-01	4.105211e-01	4.756819e-01
243           	-3.258138e-02	1.195117e+00	8.863155e-01	4.105764e-01	4.757391e-01
244           	-3.258951e-02	1.194811e+00	8.864080e-01	4.106145e-01	4.757935e-01
245           	-3.260427e-02	1.194529e+00	8.864732e-01	4.106323e-01	4.758409e-01
246           	-3.262484e-02	1.194262e+00	8.865099e-01	4.106301e-01	4.758798e-01
247           	-3.265038e-02	1.194000e+00	8.865203e-01	4.106098e-01	4.759105e-01
248           	-3.267987e-02	1.193732e+00	8.865104e-01	4.105753e-01	4.759351e-01
249           	-3.271236e-02	1.193450e+00	8.864856e-01	4.105304e-01	4.759551e-01
250           	-3.274618e-02	1.193148e+00	8.864512e-01	4.104794e-01	4.759718e-01
251           	-3.277996e-02	1.192821e+00	8.864114e-01	4.104257e-01	4.759857e-01
252           	-3.281285e-02	1.192468e+00	8.863711e-01	4.103727e-01	4.759984e-01
253           	-3.284373e-02	1.192094e+00	8.863376e-01	4.103250e-01	4.760125e-01
254           	-3.287155e-02	1.191703e+00	8.863080e-01	4.102824e-01	4.760255e-01
255           	-3.289564e-02	1.191302e+00	8.862767e-01	4.102427e-01	4.760340e-01
256           	-3.291485e-02	1.190889e+00	8.862428e-01	4.102066e-01	4.760363e-01
257           	-3.292784e-02	1.190466e+00	8.862002e-01	4.101722e-01	4.760279e-01
258           	-3.293354e-02	1.190032e+00	8.861529e-01	4.101429e-01	4.760100e-01
259           	-3.293115e-02	1.189588e+00	8.861047e-01	4.101212e-01	4.759835e-01
260           	-3.292023e-02	1.189133e+00	8.860509e-01	4.101052e-01	4.759457e-01
261           	-3.290073e-02	1.188668e+00	8.860028e-01	4.101007e-01	4.759021e-01
262           	-3.287265e-02	1.188199e+00	8.859568e-01	4.101058e-01	4.758511e-01
263           	-3.283640e-02	1.187727e+00	8.859069e-01	4.101170e-01	4.757898e-01
264           	-3.279203e-02	1.187255e+00	8.858497e-01	4.101328e-01	4.757169e-01
265           	-3.273967e-02	1.186783e+00	8.857756e-01	4.101481e-01	4.756275e-01
266           	-3.268011e-02	1.186315e+00	8.856844e-01	4.101621e-01	4.755223e-01
267           	-3.261467e-02	1.185855e+00	8.855681e-01	4.101694e-01	4.753987e-01
268           	-3.254413e-02	1.185405e+00	8.854182e-01	4.101650e-01	4.752532e-01
269           	-3.246926e-02	1.184967e+00	8.852410e-01	4.101513e-01	4.750898e-01
270           	-3.239109e-02	1.184545e+00	8.850481e-01	4.101330e-01	4.749152e-01
271           	-3.231070e-02	1.184141e+00	8.848472e-01	4.101129e-01	4.747343e-01
272           	-3.222914e-02	1.183757e+00	8.846297e-01	4.100857e-01	4.745440e-01
273           	-3.214773e-02	1.183396e+00	8.843848e-01	4.100447e-01	4.743401e-01
274           	-3.206785e-02	1.183064e+00	8.841079e-01	4.099861e-01	4.741218e-01
275           	-3.199019e-02	1.182760e+00	8.837974e-01	4.099085e-01	4.738889e-01
276           	-3.191550e-02	1.182488e+00	8.834602e-01	4.098146e-01	4.736456e-01
277           	-3.184440e-02	1.182255e+00	8.831022e-01	4.097067e-01	4.733955e-01
278           	-3.177716e-02	1.182061e+00	8.827250e-01	4.095853e-01	4.731396e-01
279           	-3.171402e-02	1.181909e+00	8.823354e-01	4.094537e-01	4.728817e-01
280           	-3.165504e-02	1.181802e+00	8.819339e-01	4.093119e-01	4.726220e-01
281           	-3.160088e-02	1.181741e+00	8.815250e-01	4.091616e-01	4.723634e-01
282           	-3.155184e-02	1.181728e+00	8.811044e-01	4.090004e-01	4.721040e-01
283           	-3.150829e-02	1.181762e+00	8.806733e-01	4.088284e-01	4.718449e-01
284           	-3.147048e-02	1.181842e+00	8.802335e-01	4.086463e-01	4.715872e-01
285           	-3.143845e-02	1.181965e+00	8.797908e-01	4.084569e-01	4.713338e-01
286           	-3.141171e-02	1.182125e+00	8.793493e-01	4.082629e-01	4.710863e-01
287           	-3.138991e-02	1.182321e+00	8.789218e-01	4.080710e-01	4.708508e-01
288           	-3.137284e-02	1.182550e+00	8.785085e-01	4.078814e-01	4.706271e-01
289           	-3.136034e-02	1.182809e+00	8.781037e-01	4.076915e-01	4.704122e-01
290           	-3.135245e-02	1.183093e+00	8.777033e-01	4.074992e-01	4.702041e-01
291           	-3.134935e-02	1.183400e+00	8.773072e-01	4.073043e-01	4.700030e-01
292           	-3.135128e-02	1.183731e+00	8.769207e-01	4.071091e-01	4.698116e-01
293           	-3.135835e-02	1.184093e+00	8.765382e-01	4.069107e-01	4.696274e-01
294           	-3.137074e-02	1.184485e+00	8.761525e-01	4.067055e-01	4.694470e-01
295           	-3.138843e-02	1.184905e+00	8.757544e-01	4.064888e-01	4.692656e-01
296           	-3.141174e-02	1.185357e+00	8.753335e-01	4.062550e-01	4.690785e-01
297           	-3.144132e-02	1.185836e+00	8.748859e-01	4.060016e-01	4.688842e-01
298           	-3.147715e-02	1.186328e+00	8.744135e-01	4.057296e-01	4.686839e-01
299           	-3.151896e-02	1.186826e+00	8.739163e-01	4.054392e-01	4.684771e-01
300           	-3.156695e-02	1.187333e+00	8.733976e-01	4.051318e-01	4.682657e-01
301           	-3.162174e-02	1.187856e+00	8.728472e-01	4.048019e-01	4.680453e-01
302           	-3.168375e-02	1.188387e+00	8.722538e-01	4.044432e-01	4.678107e-01
303           	-3.175274e-02	1.188921e+00	8.716246e-01	4.040596e-01	4.675650e-01
304           	-3.182840e-02	1.189456e+00	8.709621e-01	4.036526e-01	4.673094e-01
305           	-3.191043e-02	1.189993e+00	8.702571e-01	4.032181e-01	4.670390e-01
306           	-3.199855e-02	1.190538e+00	8.694926e-01	4.027478e-01	4.667449e-01
307           	-3.209219e-02	1.191085e+00	8.686559e-01	4.022358e-01	4.664201e-01
308           	-3.218999e-02	1.191627e+00	8.677535e-01	4.016868e-01	4.660667e-01
309           	-3.229002e-02	1.192149e+00	8.668128e-01	4.011164e-01	4.656964e-01
310           	-3.239009e-02	1.192640e+00	8.658514e-01	4.005356e-01	4.653158e-01
311           	-3.248867e-02	1.193090e+00	8.648912e-01	3.999569e-01	4.649343e-01
312           	-3.258419e-02	1.193485e+00	8.639280e-01	3.993798e-01	4.645482e-01
313           	-3.267545e-02	1.193812e+00	8.629599e-01	3.988045e-01	4.641554e-01
314           	-3.276125e-02	1.194068e+00	8.620103e-01	3.982439e-01	4.637664e-01
315           	-3.284029e-02	1.194248e+00	8.610787e-01	3.976991e-01	4.633796e-01
316           	-3.291183e-02	1.194344e+00	8.601709e-01	3.971736e-01	4.629973e-01
317           	-3.297516e-02	1.194354e+00	8.592978e-01	3.966737e-01	4.626240e-01
318           	-3.302972e-02	1.194283e+00	8.584689e-01	3.962047e-01	4.622642e-01
319           	-3.307564e-02	1.194139e+00	8.576976e-01	3.957732e-01	4.619244e-01
320           	-3.311255e-02	1.193914e+00	8.569831e-01	3.953790e-01	4.616041e-01
321           	-3.314004e-02	1.193602e+00	8.563353e-01	3.950276e-01	4.613077e-01
322           	-3.315805e-02	1.193203e+00	8.557740e-01	3.947290e-01	4.610450e-01
323           	-3.316753e-02	1.192726e+00	8.553177e-01	3.944913e-01	4.608264e-01
324           	-3.316952e-02	1.192188e+00	8.549666e-01	3.943138e-01	4.606528e-01
325           	-3.316508e-02	1.191602e+00	8.547124e-01	3.941911e-01	4.605213e-01
326           	-3.315542e-02	1.190976e+00	8.545491e-01	3.941191e-01	4.604300e-01
327           	-3.314102e-02	1.190313e+00	8.544691e-01	3.940935e-01	4.603756e-01
328           	-3.312190e-02	1.189626e+00	8.544561e-01	3.941062e-01	4.603500e-01
329           	-3.309863e-02	1.188931e+00	8.544991e-01	3.941509e-01	4.603482e-01
330           	-3.307184e-02	1.188240e+00	8.545932e-01	3.942248e-01	4.603684e-01
331           	-3.304240e-02	1.187569e+00	8.547309e-01	3.943231e-01	4.604079e-01
332           	-3.301131e-02	1.186931e+00	8.548960e-01	3.944367e-01	4.604593e-01
333           	-3.297967e-02	1.186326e+00	8.550713e-01	3.945560e-01	4.605153e-01
334           	-3.294872e-02	1.185768e+00	8.552483e-01	3.946754e-01	4.605729e-01
335           	-3.291953e-02	1.185265e+00	8.554256e-01	3.947933e-01	4.606323e-01
336           	-3.289298e-02	1.184823e+00	8.555966e-01	3.949053e-01	4.606913e-01
337           	-3.287020e-02	1.184445e+00	8.557565e-01	3.950081e-01	4.607485e-01
338           	-3.285245e-02	1.184139e+00	8.559057e-01	3.951004e-01	4.608053e-01
339           	-3.284065e-02	1.183907e+00	8.560437e-01	3.951812e-01	4.608625e-01
340           	-3.283536e-02	1.183750e+00	8.561689e-01	3.952491e-01	4.609198e-01
341           	-3.283706e-02	1.183658e+00	8.562815e-01	3.953037e-01	4.609778e-01
342           	-3.284611e-02	1.183628e+00	8.563834e-01	3.953456e-01	4.610378e-01
343           	-3.286281e-02	1.183661e+00	8.564743e-01	3.953743e-01	4.611000e-01
344           	-3.288734e-02	1.183767e+00	8.565505e-01	3.953879e-01	4.611626e-01
345           	-3.292010e-02	1.183956e+00	8.566085e-01	3.953842e-01	4.612244e-01
346           	-3.296081e-02	1.184227e+00	8.566458e-01	3.953621e-01	4.612837e-01
347           	-3.300886e-02	1.184571e+00	8.566593e-01	3.953208e-01	4.613385e-01
348           	-3.306329e-02	1.184971e+00	8.566463e-01	3.952599e-01	4.613864e-01
349           	-3.312321e-02	1.185408e+00	8.566071e-01	3.951803e-01	4.614268e-01
350           	-3.318787e-02	1.185869e+00	8.565398e-01	3.950820e-01	4.614578e-01
351           	-3.325647e-02	1.186340e+00	8.564418e-01	3.949645e-01	4.614774e-01
352           	-3.332828e-02	1.186806e+00	8.563147e-01	3.948291e-01	4.614856e-01
353           	-3.340242e-02	1.187253e+00	8.561617e-01	3.946784e-01	4.614832e-01
354           	-3.347831e-02	1.187673e+00	8.559875e-01	3.945155e-01	4.614721e-01
355           	-3.355514e-02	1.188062e+00	8.557952e-01	3.943425e-01	4.614528e-01
356           	-3.363212e-02	1.188411e+00	8.555878e-01	3.941618e-01	4.614260e-01
357           	-3.370860e-02	1.188718e+00	8.553675e-01	3.939752e-01	4.613924e-01
358           	-3.378382e-02	1.188981e+00	8.551358e-01	3.937841e-01	4.613517e-01
359           	-3.385699e-02	1.189194e+00	8.548954e-01	3.935907e-01	4.613047e-01
360           	-3.392748e-02	1.189351e+00	8.546466e-01	3.933958e-01	4.612508e-01
361           	-3.399457e-02	1.189445e+00	8.543918e-01	3.932013e-01	4.611905e-01
362           	-3.405761e-02	1.189481e+00	8.541355e-01	3.930101e-01	4.611254e-01
363           	-3.411630e-02	1.189465e+00	8.538793e-01	3.928234e-01	4.610560e-01
364           	-3.417033e-02	1.189400e+00	8.536247e-01	3.926420e-01	4.609827e-01
365           	-3.421945e-02	1.189288e+00	8.533726e-01	3.924668e-01	4.609057e-01