# kMean  POINT_DATA 63140
# x  y  z  kMean
0 0.1 0 0.00375
0 0.1 -0.0179898 0.00375
0 0.1 0.0179898 0.00375
0.0363518 0.1 0.0179898 0.00374796
0.0363518 0.1 -0.0179898 0.00374801
0 0.1 -0.0570102 0.00375
0 0.1 0.0570102 0.00375
0.0363518 0.1 0.0570102 0.00374796
0.0363518 0.1 -0.0570102 0.00374801
0 0.1 -0.075 0.00375
0 0.1 0.075 0.00375
0.075776 0.1 -0.0375 0.00374561
0.075776 0.1 0.0375 0.00374551
0 0.1 -0.0929898 0.00375
0 0.1 0.0929898 0.00375
0.0363518 0.1 -0.0929898 0.00374824
0.0363518 0.1 0.0929898 0.00374811
0 0.1 -0.13201 0.00375
0 0.1 0.13201 0.00375
0.075776 0.1 -0.1125 0.00374609
0.075776 0.1 0.1125 0.00374582
0.0363518 0.1 -0.13201 0.00374824
0.0363518 0.1 0.13201 0.00374811
0 0.1 -0.15 0.00375
0 0.1 0.15 0.00375
0.150379 0.1 -2.22623e-17 0.00373981
0 0.1 -0.16799 0.00375
0 0.1 0.16799 0.00375
0.150379 0.1 -0.075 0.00374042
0.150379 0.1 0.075 0.00373994
0.0363518 0.1 -0.16799 0.00374852
0.0363518 0.1 0.16799 0.00374839
0.075776 0.1 -0.1875 0.00374666
0.075776 0.1 0.1875 0.0037464
0 0.1 -0.20701 0.00375
0 0.1 0.20701 0.00375
0.0363518 0.1 -0.20701 0.00374852
0.0363518 0.1 0.20701 0.00374839
0.150379 0.1 -0.15 0.00374133
0.150379 0.1 0.15 0.0037407
0.219993 0.1 -0.0375 0.00373456
0.219993 0.1 0.0375 0.00373408
0 0.1 -0.225 0.00375
0 0.1 0.225 0.00375
0 0.1 -0.24299 0.00375
0 0.1 0.24299 0.00375
0.0363518 0.1 0.24299 0.00374871
0.0363518 0.1 -0.24299 0.00374876
0.219993 0.1 -0.1125 0.00373593
0.219993 0.1 0.1125 0.00373488
0.150379 0.1 -0.225 0.00374217
0.150379 0.1 0.225 0.00374167
0.075776 0.1 -0.2625 0.00374716
0.075776 0.1 0.2625 0.00374706
0 0.1 -0.28201 0.00375
0 0.1 0.28201 0.00375
0.0363518 0.1 -0.28201 0.00374876
0.0363518 0.1 0.28201 0.00374871
0.287374 0.1 -2.89121e-19 0.00372805
0.219992 0.1 0.1875 0.0037362
0.219992 0.1 -0.1875 0.00373711
0.287374 0.1 -0.075 0.00372914
0.287374 0.1 0.075 0.00372809
0 0.1 -0.3 0.00375
0 0.1 0.3 0.00375
0 0.1 0.31799 0.00375
0 0.1 -0.31799 0.00375
0.0363518 0.1 -0.31799 0.003749
0.0363518 0.1 0.31799 0.00374899
0.287374 0.1 0.15 0.00372916
0.287374 0.1 -0.15 0.00373059
0.150379 0.1 -0.3 0.00374296
0.150379 0.1 0.3 0.00374262
0.219993 0.1 0.2625 0.00373748
0.219993 0.1 -0.2625 0.00373818
0.075776 0.1 -0.3375 0.00374766
0.075776 0.1 0.3375 0.00374763
0.350249 0.1 -0.0375 0.00372245
0.350249 0.1 0.0375 0.00372164
0 0.1 -0.35701 0.00375
0 0.1 0.35701 0.00375
0.0363518 0.1 -0.35701 0.003749
0.0363518 0.1 0.35701 0.00374899
0.287374 0.1 -0.225 0.00373187
0.287374 0.1 0.225 0.0037306
0.350249 0.1 -0.1125 0.00372412
0.350249 0.1 0.1125 0.00372229
0 0.1 -0.375 0.00375
0 0.1 0.375 0.00375
0 0.1 -0.39299 0.00375
0 0.1 0.39299 0.00375
0.0363518 0.1 -0.39299 0.00374925
0.0363518 0.1 0.39299 0.00374925
0.350249 0.1 -0.1875 0.00372567
0.350249 0.1 0.1875 0.00372381
0.219992 0.1 -0.3375 0.00373924
0.219992 0.1 0.3375 0.00373875
0.150379 0.1 0.375 0.00374344
0.150379 0.1 -0.375 0.00374359
0.411108 0.1 4.33681e-19 0.00371759
0.287374 0.1 -0.3 0.00373301
0.287374 0.1 0.3 0.00373202
0.411108 0.1 -0.075 0.00371888
0.411108 0.1 0.075 0.00371736
0.075776 0.1 -0.4125 0.00374816
0.075776 0.1 0.4125 0.00374816
0 0.1 0.43201 0.00375
0 0.1 -0.43201 0.00375
0.0363518 0.1 0.43201 0.00374925
0.0363518 0.1 -0.43201 0.00374925
0.411108 0.1 -0.15 0.00372051
0.411108 0.1 0.15 0.0037183
0.350249 0.1 -0.2625 0.00372698
0.350249 0.1 0.2625 0.00372543
0 0.1 -0.45 0.00375
0 0.1 0.45 0.00375
0.219992 0.1 0.4125 0.00373962
0.219992 0.1 -0.4125 0.0037397
0 0.1 -0.46799 0.00375
0 0.1 0.46799 0.00375
0.411108 0.1 -0.225 0.00372196
0.411108 0.1 0.225 0.00371981
0.467897 0.1 -0.0375 0.00371378
0.467897 0.1 0.0375 0.00371278
0.0363518 0.1 0.46799 0.00374951
0.0363518 0.1 -0.46799 0.00374952
0.287374 0.1 -0.375 0.00373385
0.287374 0.1 0.375 0.00373321
0.150379 0.1 0.45 0.00374402
0.150379 0.1 -0.45 0.00374412
0.467897 0.1 0.1125 0.00371306
0.467897 0.1 -0.1125 0.00371546
0.350249 0.1 -0.3375 0.00372809
0.350249 0.1 0.3375 0.0037269
0.075776 0.1 -0.4875 0.00374872
0.075776 0.1 0.4875 0.0037487
0.467897 0.1 0.1875 0.00371436
0.467897 0.1 -0.1875 0.00371708
0 0.1 -0.50701 0.00375
0 0.1 0.50701 0.00375
0.0363518 0.1 -0.50701 0.00374952
0.0363518 0.1 0.50701 0.00374951
0.411108 0.1 0.3 0.00372135
0.411108 0.1 -0.3 0.00372314
0.522865 0.1 1.41031e-17 0.00371114
0 0.1 -0.525 0.00375
0 0.1 0.525 0.00375
0.522865 0.1 -0.075 0.00371247
0.522865 0.1 0.075 0.00371066
0.287374 0.1 0.45 0.00373398
0.287374 0.1 -0.45 0.00373448
0.219992 0.1 0.4875 0.00374
0.219992 0.1 -0.4875 0.0037403
0.467897 0.1 -0.2625 0.00371838
0.467897 0.1 0.2625 0.00371596
0.350249 0.1 -0.4125 0.00372883
0.350249 0.1 0.4125 0.00372803
0 0.1 -0.54299 0.00375
0 0.1 0.54299 0.00375
0.522865 0.1 0.15 0.00371124
0.522865 0.1 -0.15 0.00371402
0.0363518 0.1 0.54299 0.00374978
0.0363518 0.1 -0.54299 0.00374979
0.150379 0.1 -0.525 0.00374478
0.150379 0.1 0.525 0.00374457
0.411108 0.1 -0.375 0.003724
0.411108 0.1 0.375 0.00372263
0.075776 0.1 -0.5625 0.00374929
0.075776 0.1 0.5625 0.00374925
0.522865 0.1 -0.225 0.00371537
0.522865 0.1 0.225 0.00371248
0.574156 0.1 0.0375 0.00370848
0.574157 0.1 -0.0375 0.00370958
0.467897 0.1 -0.3375 0.00371937
0.467897 0.1 0.3375 0.00371742
0 0.1 -0.58201 0.00375
0 0.1 0.58201 0.00375
0.0363518 0.1 -0.58201 0.00374979
0.0363518 0.1 0.58201 0.00374978
0.574157 0.1 -0.1125 0.0037111
0.574157 0.1 0.1125 0.00370838
0.287374 0.1 -0.525 0.00373524
0.287374 0.1 0.525 0.00373461
0 0.1 -0.6 0.00375
0 0.1 0.6 0.00375
0.350249 0.1 0.4875 0.00372872
0.350249 0.1 -0.4875 0.00372954
0.522865 0.1 -0.3 0.00371635
0.522865 0.1 0.3 0.00371386
0.219992 0.1 -0.5625 0.00374118
0.219992 0.1 0.5625 0.00374074
0.574156 0.1 -0.1875 0.0037125
0.574156 0.1 0.1875 0.00370923
0.411108 0.1 0.45 0.00372352
0.411108 0.1 -0.45 0.00372464
0 0.1 -0.61799 0.00375
0 0.1 0.61799 0.00375
0.150379 0.1 -0.6 0.00374549
0.150379 0.1 0.6 0.00374526
0.0363518 0.1 -0.61799 0.00375006
0.0363518 0.1 0.61799 0.00375005
0.467897 0.1 -0.4125 0.00371998
0.467897 0.1 0.4125 0.0037185
0.623803 0.1 2.34188e-17 0.00370912
0.623803 0.1 0.075 0.00370843
0.623803 0.1 -0.075 0.00371037
0.574156 0.1 0.2625 0.00371048
0.574156 0.1 -0.2625 0.00371357
0.623803 0.1 0.15 0.00370858
0.623803 0.1 -0.15 0.00371166
0.075776 0.1 0.6375 0.00374982
0.075776 0.1 -0.6375 0.00374984
0.522865 0.1 -0.375 0.00371692
0.522865 0.1 0.375 0.00371498
0 0.1 0.65701 0.00375
0 0.1 -0.65701 0.00375
0.0363518 0.1 0.65701 0.00375005
0.0363518 0.1 -0.65701 0.00375006
0.350249 0.1 0.5625 0.00372941
0.350249 0.1 -0.5625 0.00373037
0.623803 0.1 0.225 0.00370935
0.623803 0.1 -0.225 0.00371267
0.287374 0.1 -0.6 0.00373608
0.287374 0.1 0.6 0.00373538
0.574157 0.1 -0.3375 0.00371414
0.574157 0.1 0.3375 0.00371168
0.411108 0.1 0.525 0.00372413
0.411108 0.1 -0.525 0.00372528
0.67013 0.1 0.0375 0.00370857
0.67013 0.1 -0.0375 0.00370968
0.219992 0.1 -0.6375 0.00374201
0.219993 0.1 0.6375 0.0037416
0 0.1 -0.675 0.00375
0 0.1 0.675 0.00375
0.467897 0.1 -0.4875 0.00372049
0.467897 0.1 0.4875 0.00371913
0.67013 0.1 -0.1125 0.00371094
0.67013 0.1 0.1125 0.00370811
0.522865 0.1 0.45 0.00371564
0.522865 0.1 -0.45 0.00371721
0.150379 0.1 0.675 0.00374595
0.150379 0.1 -0.675 0.00374614
0.623803 0.1 0.3 0.0037103
0.623803 0.1 -0.3 0.0037132
0 0.1 -0.69299 0.00375
0 0.1 0.69299 0.00375
0.0363518 0.1 -0.69299 0.00375031
0.0363518 0.1 0.69299 0.00375031
0.67013 0.1 -0.1875 0.00371196
0.67013 0.1 0.1875 0.00370844
0.574156 0.1 0.4125 0.00371243
0.574157 0.1 -0.4125 0.00371428
0.714971 0.1 -2.8382e-17 0.00371123
0.075776 0.1 -0.7125 0.00375035
0.075776 0.1 0.7125 0.00375035
0.714971 0.1 -0.075 0.00371232
0.714971 0.1 0.075 0.00371038
0.67013 0.1 0.2625 0.00370914
0.67013 0.1 -0.2625 0.00371251
0.411108 0.1 -0.6 0.00372597
0.411108 0.1 0.6 0.00372474
0.350249 0.1 0.6375 0.00373022
0.350249 0.1 -0.6375 0.0037312
0.623803 0.1 0.375 0.00371099
0.623803 0.1 -0.375 0.00371322
0.714971 0.1 -0.15 0.00371324
0.714971 0.1 0.15 0.0037101
0.467897 0.1 -0.5625 0.00372104
0.467897 0.1 0.5625 0.00371957
0 0.1 -0.73201 0.00375
0 0.1 0.73201 0.00375
0.0363518 0.1 0.73201 0.00375031
0.0363518 0.1 -0.73201 0.00375031
0.287374 0.1 -0.675 0.00373686
0.287374 0.1 0.675 0.0037362
0.522865 0.1 -0.525 0.00371739
0.522865 0.1 0.525 0.00371592
0.219993 0.1 -0.7125 0.00374273
0.219992 0.1 0.7125 0.0037424
0.714971 0.1 -0.225 0.00371372
0.714971 0.1 0.225 0.00371031
0 0.1 0.75 0.00375
0 0.1 -0.75 0.00375
0.67013 0.1 -0.3375 0.00371247
0.67013 0.1 0.3375 0.00370978
0.574156 0.1 -0.4875 0.00371418
0.574157 0.1 0.4875 0.00371264
0.756813 0.1 0.0375 0.00371263
0.756814 0.1 -0.0375 0.00371369
0.150379 0.1 0.746002 0.00374662
0.150379 0.1 -0.75 0.00374672
0.756813 0.1 -0.1125 0.00371462
0.756813 0.1 0.1125 0.00371188
0 0.1 0.76799 0.00375
0 0.1 -0.76799 0.00375
0.0363518 0.1 0.76799 0.00375053
0.0363518 0.1 -0.76799 0.00375052
0.623803 0.1 -0.45 0.00371286
0.623803 0.1 0.45 0.00371118
0.714971 0.1 -0.3 0.00371363
0.714971 0.1 0.3 0.00371063
0.756814 0.1 -0.1875 0.00371511
0.756814 0.1 0.1875 0.00371165
0.67013 0.1 -0.4125 0.00371191
0.67013 0.1 0.4125 0.00371
0.411108 0.1 0.675 0.0037254
0.411108 0.1 -0.675 0.00372658
0.467897 0.1 0.6375 0.00372007
0.467897 0.1 -0.6375 0.00372157
0.075776 0.1 0.7875 0.00375081
0.075776 0.1 -0.7875 0.00375079
0.350249 0.1 -0.7125 0.00373193
0.350249 0.1 0.7125 0.00373105
0.522865 0.1 -0.6 0.00371755
0.522865 0.1 0.6 0.00371604
0.797314 0.1 -3.59473e-17 0.00371704
0.287374 0.1 0.746002 0.00373704
0.797314 0.1 -0.075 0.00371791
0.797314 0.1 0.075 0.00371609
0.756814 0.1 -0.2625 0.00371499
0.756814 0.1 0.2625 0.00371171
0.287374 0.1 -0.75 0.00373753
0.574156 0.1 -0.5625 0.003714
0.574156 0.1 0.5625 0.00371246
0 0.1 0.80701 0.00375
0 0.1 -0.80701 0.00375
0.714971 0.1 -0.375 0.00371291
0.714971 0.1 0.375 0.00371071
0.0363518 0.1 0.80701 0.00375053
0.0363518 0.1 -0.80701 0.00375052
0.797314 0.1 -0.15 0.00371837
0.797314 0.1 0.15 0.0037154
0.623803 0.1 -0.525 0.00371228
0.623803 0.1 0.525 0.00371085
0.219992 0.1 0.7875 0.0037431
0.219992 0.1 -0.7875 0.00374336
0.149792 0.1 0.80701 0.00374701
0 0.1 0.825 0.00375
0 0.1 -0.825 0.00375
0.797314 0.1 -0.225 0.00371822
0.797314 0.1 0.225 0.00371501
0.756813 0.1 -0.3375 0.00371425
0.756813 0.1 0.3375 0.00371161
0.67013 0.1 0.4875 0.00370959
0.67013 0.1 -0.4875 0.00371101
0.835106 0.1 -0.0375 0.00372115
0.835106 0.1 0.0375 0.00372019
0.150379 0.1 -0.825 0.00374722
0.835106 0.1 -0.1125 0.00372169
0.835106 0.1 0.1125 0.00371919
0 0.1 -0.84299 0.00375
0 0.1 0.84299 0.00375
0.0363518 0.1 -0.84299 0.00375071
0.0363518 0.1 0.84299 0.00375072
0.714971 0.1 -0.45 0.00371169
0.714971 0.1 0.45 0.00371024
0.411108 0.1 0.746002 0.00372612
0.797314 0.1 -0.3 0.00371738
0.797314 0.1 0.3 0.00371461
0.467897 0.1 -0.7125 0.00372196
0.467897 0.1 0.7125 0.00372062
0.522865 0.1 0.675 0.00371618
0.522865 0.1 -0.675 0.00371763
0.411108 0.1 -0.75 0.00372707
0.835106 0.1 -0.1875 0.00372159
0.835107 0.1 0.1875 0.00371842
0.286844 0.1 0.80701 0.00373753
0.574156 0.1 0.6375 0.00371221
0.574157 0.1 -0.6375 0.00371376
0.350249 0.1 -0.7875 0.00373256
0.350249 0.1 0.7875 0.00373182
0.756813 0.1 -0.4125 0.00371276
0.756814 0.1 0.4125 0.00371118
0.623803 0.1 -0.6 0.00371158
0.623803 0.1 0.6 0.00371021
0.075776 0.1 0.8625 0.00375121
0.075776 0.1 -0.8625 0.00375118
0.871687 0.1 -3.2767e-18 0.00372599
0.287374 0.1 -0.825 0.00373811
0.871687 0.1 -0.075 0.00372659
0.871687 0.1 0.075 0.003725
0.67013 0.1 -0.5625 0.00370991
0.67013 0.1 0.5625 0.00370866
0.835106 0.1 0.2625 0.00371779
0.835106 0.1 -0.2625 0.00372074
0.797314 0.1 -0.375 0.0037158
0.797314 0.1 0.375 0.00371392
0 0.1 -0.88201 0.00375
0 0.1 0.88201 0.00375
0.0363518 0.1 0.88201 0.00375072
0.0363518 0.1 -0.88201 0.00375071
0.871687 0.1 0.15 0.00372394
0.871687 0.1 -0.15 0.00372654
0.714971 0.1 0.525 0.00370912
0.714971 0.1 -0.525 0.00371015
0.219993 0.1 0.8625 0.0037437
0.219992 0.1 -0.8625 0.00374389
0 0.1 0.9 0.00375
0 0.1 -0.9 0.00375
0.756813 0.1 0.4875 0.00370995
0.756814 0.1 -0.4875 0.00371084
0.871687 0.1 0.225 0.00372293
0.871687 0.1 -0.225 0.00372571
0.835106 0.1 -0.3375 0.00371913
0.835106 0.1 0.3375 0.0037169
0.41063 0.1 0.80701 0.00372653
0.90582 0.1 -0.0375 0.00373141
0.905821 0.1 0.0375 0.00373061
0.522865 0.1 0.746002 0.00371641
0.150379 0.1 0.9 0.00374757
0.90582 0.1 0.1125 0.00372941
0.905821 0.1 -0.1125 0.00373152
0.522865 0.1 -0.75 0.00371759
0.574156 0.1 0.7125 0.00371202
0.574156 0.1 -0.7125 0.00371344
0.797314 0.1 -0.45 0.00371356
0.797314 0.1 0.45 0.00371266
0.467897 0.1 -0.7875 0.00372218
0.467897 0.1 0.7875 0.0037211
0.150379 0.1 -0.903998 0.00374752
0 0.1 0.91799 0.00375
0 0.1 -0.91799 0.00375
0.0363518 0.1 0.91799 0.00375088
0.0363518 0.1 -0.91799 0.00375085
0.623803 0.1 0.675 0.00370949
0.623803 0.1 -0.675 0.00371079
0.411108 0.1 -0.825 0.00372743
0.871687 0.1 0.3 0.00372177
0.871687 0.1 -0.3 0.00372403
0.67013 0.1 -0.6375 0.00370867
0.67013 0.1 0.6375 0.00370748
0.90582 0.1 -0.1875 0.00373079
0.90582 0.1 0.1875 0.00372814
0.350249 0.1 0.8625 0.00373249
0.350249 0.1 -0.8625 0.00373308
0.835106 0.1 -0.4125 0.00371666
0.835106 0.1 0.4125 0.00371559
0.714971 0.1 -0.6 0.0037084
0.714971 0.1 0.6 0.00370755
0.93886 0.1 -1.15648e-17 0.00373775
0.075776 0.1 0.9375 0.00375153
0.075776 0.1 -0.9375 0.00375148
0.93886 0.1 0.075 0.00373675
0.93886 0.1 -0.075 0.00373806
0.756813 0.1 0.5625 0.00370807
0.756814 0.1 -0.5625 0.00370864
0.905821 0.1 -0.2625 0.00372915
0.905821 0.1 0.2625 0.00372679
0.287374 0.1 0.9 0.00373823
0.287374 0.1 -0.903998 0.00373842
0.871687 0.1 0.375 0.00372022
0.871687 0.1 -0.375 0.00372148
0.93886 0.1 -0.15 0.0037375
0.93886 0.1 0.15 0.00373536
0.797314 0.1 0.525 0.00371063
0.797314 0.1 -0.525 0.0037109
0 0.1 0.95701 0.00375
0 0.1 -0.95701 0.00375
0.0363518 0.1 0.95701 0.00375088
0.0363518 0.1 -0.95701 0.00375085
0.522433 0.1 0.80701 0.00371645
0.219992 0.1 0.9375 0.00374418
0.219992 0.1 -0.9375 0.0037443
0.93886 0.1 0.225 0.00373377
0.93886 0.1 -0.225 0.00373598
0.90582 0.1 0.3375 0.00372507
0.905821 0.1 -0.3375 0.00372655
0.835106 0.1 -0.4875 0.00371361
0.835107 0.1 0.4875 0.00371352
0.969689 0.1 -0.0375 0.00374447
0.969689 0.1 0.0375 0.00374382
0.61613 0.1 0.75 0.0037088
0.574156 0.1 -0.7875 0.00371302
0.574156 0.1 0.7875 0.00371184
0 0.1 0.975 0.00375
0 0.1 -0.975 0.00375
0.623803 0.1 -0.75 0.00370992
0.969689 0.1 -0.1125 0.00374417
0.969689 0.1 0.1125 0.00374246
0.522865 0.1 -0.825 0.00371743
0.67013 0.1 0.7125 0.00370627
0.67013 0.1 -0.7125 0.00370734
0.871687 0.1 -0.45 0.00371816
0.871687 0.1 0.45 0.00371805
0.467897 0.1 0.8625 0.00372146
0.467897 0.1 -0.8625 0.00372226
0.714971 0.1 -0.675 0.0037065
0.714971 0.1 0.675 0.00370579
0.93886 0.1 -0.3 0.00373344
0.93886 0.1 0.3 0.00373188
0.150379 0.1 0.975 0.00374792
0.150379 0.1 -0.975 0.00374794
0.969689 0.1 -0.1875 0.00374286
0.969689 0.1 0.1875 0.00374074
0.411108 0.1 0.9 0.00372707
0.756813 0.1 0.6375 0.00370583
0.756814 0.1 -0.6375 0.00370622
0.990306 0.1 -2.19732e-17 0.00374554
0 0.1 0.99299 0.00375
0 0.1 -0.99299 0.00375
0.411108 0.1 -0.903998 0.00372753
0.990306 0.1 -0.075 0.00374564
0.990306 0.1 0.075 0.00374454
0.0363518 0.1 0.99299 0.00375099
0.0363518 0.1 -0.99299 0.00375096
0.90582 0.1 -0.4125 0.00372306
0.905821 0.1 0.4125 0.00372278
0.797314 0.1 -0.6 0.00370794
0.797314 0.1 0.6 0.00370801
0.350249 0.1 0.9375 0.00373301
0.350249 0.1 -0.9375 0.00373344
0.990306 0.1 0.15 0.00374294
0.990306 0.1 -0.15 0.00374473
0.969689 0.1 -0.2625 0.00374048
0.969689 0.1 0.2625 0.00373874
0.835106 0.1 -0.5625 0.00371017
0.835106 0.1 0.5625 0.00371062
0.93886 0.1 -0.375 0.0037299
0.93886 0.1 0.375 0.00372945
0.075776 0.1 1.0125 0.00375177
0.075776 0.1 -1.0125 0.00375171
0.990306 0.1 -0.225 0.00374274
0.990306 0.1 0.225 0.00374095
0.287374 0.1 0.975 0.00373867
0.287374 0.1 -0.975 0.00373889
0.871687 0.1 -0.525 0.00371427
0.871687 0.1 0.525 0.00371507
1.02149 0.1 -0.0369628 0.00375337
1.02149 0.1 0.0369628 0.00375289
0.969689 0.1 -0.3375 0.00373695
0.969689 0.1 0.3375 0.00373626
1.02149 0.1 -0.110888 0.00375279
1.02149 0.1 0.110888 0.00375148
0.90582 0.1 0.4875 0.00371982
0.90582 0.1 -0.4875 0.00371885
0.623803 0.1 0.819003 0.00370785
0 0.1 1.03201 0.00375
0 0.1 -1.03201 0.00375
0.0363518 0.1 1.03201 0.00375099
0.0363518 0.1 -1.03201 0.00375096
0.67013 0.1 -0.7875 0.00370594
0.67013 0.1 0.7875 0.00370513
0.623803 0.1 -0.825 0.00370895
0.990306 0.1 -0.3 0.00373962
0.990306 0.1 0.3 0.00373853
0.219992 0.1 -1.0125 0.00374459
0.219993 0.1 1.0125 0.00374455
0.574156 0.1 0.8625 0.00371161
0.574157 0.1 -0.8625 0.0037125
0.714971 0.1 -0.75 0.00370451
0.714971 0.1 0.75 0.00370401
1.02149 0.1 0.184814 0.00374949
1.02149 0.1 -0.184814 0.00375111
0.756814 0.1 -0.7125 0.00370366
0.756814 0.1 0.7125 0.00370345
0.522865 0.1 0.9 0.00371646
0.93886 0.1 -0.45 0.00372539
0.93886 0.1 0.45 0.00372638
1.04168 0.1 0 0.00375828
1.04168 0.1 -0.0729162 0.00375817
1.04168 0.1 0.0729162 0.00375735
0.522865 0.1 -0.903998 0.00371708
0.797314 0.1 -0.675 0.00370478
0.797314 0.1 0.675 0.00370508
0.467897 0.1 0.9375 0.00372169
0.467897 0.1 -0.9375 0.00372224
0 0.1 1.05 0.00375
0 0.1 -1.05 0.00375
0.835106 0.1 -0.6375 0.00370645
0.835106 0.1 0.6375 0.0037072
1.04168 0.1 -0.145832 0.00375695
1.04168 0.1 0.145832 0.0037556
1.02149 0.1 -0.25874 0.00374828
1.02149 0.1 0.25874 0.00374702
0.969689 0.1 -0.4125 0.00373243
0.969689 0.1 0.4125 0.00373307
0.411108 0.1 0.975 0.00372737
0.411108 0.1 -0.975 0.00372776
0.871687 0.1 -0.6 0.00370994
0.871687 0.1 0.6 0.00371131
1.0579 0.1 -0.0360525 0.00376303
1.0579 0.1 0.0360525 0.00376266
0.990306 0.1 -0.375 0.00373538
0.990306 0.1 0.375 0.0037355
0.150379 0.1 1.05 0.00374818
0.150379 0.1 -1.05 0.00374815
1.0579 0.1 0.108157 0.00376126
1.0579 0.1 -0.108157 0.0037623
1.04168 0.1 -0.218749 0.00375459
1.04168 0.1 0.218749 0.00375327
0.90582 0.1 -0.5625 0.00371402
0.90582 0.1 0.5625 0.00371585
0 0.1 -1.06799 0.00375
0 0.1 1.06799 0.00375
0.0363518 0.1 -1.06799 0.00375104
0.0363518 0.1 1.06799 0.00375107
0.350249 0.1 1.0125 0.0037334
0.350249 0.1 -1.0125 0.00373366
1.0579 0.1 -0.180262 0.00376044
1.0579 0.1 0.180262 0.00375916
1.02149 0.1 -0.332665 0.00374422
1.02149 0.1 0.332665 0.00374401
0.93886 0.1 -0.525 0.0037201
0.93886 0.1 0.525 0.00372232
1.08012 0.1 5.49329e-18 0.00376931
1.04168 0.1 -0.291665 0.00375101
1.04168 0.1 0.291665 0.00375039
1.08012 0.1 0.0709941 0.00376844
1.08012 0.1 -0.0709941 0.00376907
0.969689 0.1 -0.4875 0.00372663
0.96969 0.1 0.4875 0.00372923
1.0579 0.1 0.252367 0.00375648
1.0579 0.1 -0.252367 0.00375739
0.990306 0.1 -0.45 0.00372992
0.990306 0.1 0.45 0.00373177
0.287374 0.1 -1.05 0.00373908
0.287374 0.1 1.05 0.00373899
0.714971 0.1 0.821002 0.00370235
1.08012 0.1 -0.141988 0.00376771
1.08012 0.1 0.141988 0.00376666
0.075776 0.1 1.0875 0.00375194
0.075776 0.1 -1.0875 0.00375187
0.714971 0.1 -0.825 0.00370243
0.756813 0.1 -0.7875 0.00370101
0.756814 0.1 0.7875 0.00370109
0.67013 0.1 -0.8625 0.00370443
0.67013 0.1 0.8625 0.00370399
0.797314 0.1 -0.75 0.00370147
0.797314 0.1 0.75 0.00370205
0.623803 0.1 0.9 0.00370741
0.835106 0.1 -0.7125 0.00370254
0.835106 0.1 0.7125 0.00370356
0.623803 0.1 -0.903998 0.00370791
0.574156 0.1 0.9375 0.00371135
0.574156 0.1 -0.9375 0.00371188
1.02149 0.1 -0.406591 0.00373901
1.02149 0.1 0.406591 0.00374024
1.08012 0.1 -0.212982 0.00376517
1.08012 0.1 0.212982 0.00376419
1.10076 0.1 -0.0349809 0.00377555
1.10076 0.1 0.0349809 0.00377527
0.871687 0.1 -0.675 0.00370532
0.871687 0.1 0.675 0.00370707
1.04168 0.1 -0.364581 0.00374621
1.04168 0.1 0.364581 0.00374684
1.10076 0.1 -0.104943 0.00377469
1.10076 0.1 0.104943 0.00377388
0.522865 0.1 0.975 0.00371638
0.522865 0.1 -0.975 0.00371676
1.0579 0.1 -0.324472 0.00375307
1.0579 0.1 0.324472 0.00375321
0 0.1 -1.10701 0.00375
0 0.1 1.10701 0.00375
0.0363518 0.1 1.10701 0.00375107
0.0363518 0.1 -1.10701 0.00375104
0.90582 0.1 0.6375 0.00371112
0.905821 0.1 -0.6375 0.00370875
0.219992 0.1 1.0875 0.0037448
0.219992 0.1 -1.0875 0.00374475
0.93886 0.1 0.6 0.00371728
0.93886 0.1 -0.6 0.00371434
1.10076 0.1 -0.174905 0.00377269
1.10076 0.1 0.174905 0.00377167
0.467897 0.1 1.0125 0.00372178
0.467897 0.1 -1.0125 0.00372208
1.08012 0.1 -0.283976 0.00376139
1.08012 0.1 0.283976 0.0037611
1.11928 0.1 3.93204e-18 0.00378104
0.990306 0.1 -0.525 0.00372361
0.990306 0.1 0.525 0.00372689
0.96969 0.1 -0.5625 0.00372038
0.969689 0.1 0.5625 0.0037238
1.11928 0.1 -0.0690357 0.00378071
1.11928 0.1 0.0690357 0.00378024
0 0.1 1.125 0.00375
0 0.1 -1.125 0.00375
0.411108 0.1 -1.05 0.00372773
0.411108 0.1 1.05 0.00372755
1.10076 0.1 0.244866 0.0037688
1.10076 0.1 -0.244866 0.00376949
1.11928 0.1 -0.138072 0.00377925
1.11928 0.1 0.138072 0.00377844
1.02149 0.1 0.480517 0.00373574
1.02149 0.1 -0.480517 0.00373234
1.0579 0.1 -0.396577 0.00374749
1.0579 0.1 0.396577 0.00374916
1.04168 0.1 -0.437497 0.00374002
1.04168 0.1 0.437497 0.00374254
0.150379 0.1 1.125 0.00374835
0.150379 0.1 -1.125 0.00374827
0.714971 0.1 0.88201 0.00369992
1.08012 0.1 0.354971 0.0037573
1.08012 0.1 -0.354971 0.00375632
1.11928 0.1 -0.207107 0.00377662
1.11928 0.1 0.207107 0.00377588
0.350249 0.1 -1.0875 0.00373375
0.350249 0.1 1.0875 0.00373366
0 0.1 1.14299 0.00375
0 0.1 -1.14299 0.00375
0.0363518 0.1 1.14299 0.00375112
0.0363518 0.1 -1.14299 0.00375109
1.14316 0.1 -0.0339211 0.00378881
1.14316 0.1 0.0339211 0.00378864
0.797314 0.1 0.821002 0.0036992
1.10076 0.1 -0.314829 0.00376497
1.10076 0.1 0.314829 0.00376528
0.797314 0.1 -0.825 0.00369807
0.756814 0.1 -0.8625 0.00369831
0.756814 0.1 0.8625 0.00369879
1.14316 0.1 -0.101763 0.00378786
1.14316 0.1 0.101763 0.00378732
0.835106 0.1 -0.7875 0.00369848
0.835106 0.1 0.7875 0.00369987
0.871687 0.1 -0.75 0.00370052
0.871687 0.1 0.75 0.00370265
0.67013 0.1 0.9375 0.00370281
0.67013 0.1 -0.9375 0.00370287
0.90582 0.1 -0.7125 0.00370321
0.905821 0.1 0.7125 0.00370602
0.714971 0.1 -0.903998 0.00370044
1.11928 0.1 0.276143 0.00377262
1.11928 0.1 -0.276143 0.00377272
1.14316 0.1 0.169605 0.0037851
1.14316 0.1 -0.169605 0.00378578
0.93886 0.1 -0.675 0.00370825
0.93886 0.1 0.675 0.0037117
1.15704 0.1 0 0.00379304
1.0579 0.1 0.468682 0.00374432
1.0579 0.1 -0.468682 0.00374038
0.623803 0.1 0.975 0.00370666
0.623803 0.1 -0.975 0.00370677
0.990306 0.1 0.6 0.00372091
0.990306 0.1 -0.6 0.00371684
1.15704 0.1 -0.0671479 0.00379263
1.15704 0.1 0.0671479 0.0037923
1.04168 0.1 -0.510414 0.00373289
1.04168 0.1 0.510414 0.00373712
0.969689 0.1 -0.6375 0.00371372
0.969689 0.1 0.6375 0.0037178
1.08012 0.1 0.425965 0.00375271
1.08012 0.1 -0.425965 0.00374977
0.287374 0.1 -1.125 0.00373915
0.287374 0.1 1.125 0.00373918
1.02149 0.1 -0.554443 0.00372529
1.02149 0.1 0.554443 0.00372971
0.574156 0.1 1.0125 0.003711
0.574156 0.1 -1.0125 0.00371112
1.15704 0.1 -0.134296 0.00379111
1.15704 0.1 0.134296 0.0037905
0.075776 0.1 1.1625 0.00375205
0.075776 0.1 -1.1625 0.00375197
1.10076 0.1 -0.384791 0.00375912
1.10076 0.1 0.384791 0.00376095
1.14316 0.1 -0.237448 0.00378249
1.14316 0.1 0.237448 0.00378214
1.11928 0.1 -0.345179 0.00376749
1.11928 0.1 0.345179 0.00376863
0.522865 0.1 1.05 0.00371618
0.522865 0.1 -1.05 0.00371626
1.15704 0.1 -0.201444 0.00378844
1.15704 0.1 0.201444 0.00378789
1.1744 0.1 -0.0331401 0.00379854
1.1744 0.1 0.0331401 0.00379842
1.1744 0.1 -0.0994202 0.00379757
1.1744 0.1 0.0994202 0.00379711
0 0.1 1.18201 0.00375
0 0.1 -1.18201 0.00375
0.0363518 0.1 1.18201 0.00375112
0.0363518 0.1 -1.18201 0.00375109
0.219992 0.1 1.1625 0.00374493
0.219993 0.1 -1.1625 0.00374483
1.14316 0.1 0.30529 0.00377846
1.14316 0.1 -0.30529 0.00377788
0.467897 0.1 1.0875 0.00372175
0.467897 0.1 -1.0875 0.00372183
1.1744 0.1 -0.1657 0.00379551
1.1744 0.1 0.1657 0.00379488
1.15704 0.1 -0.268592 0.00378451
1.15704 0.1 0.268592 0.00378453
1.0579 0.1 0.540787 0.00373807
1.0579 0.1 -0.540787 0.00373289
0.796996 0.1 0.88201 0.00369682
1.08012 0.1 -0.496959 0.0037422
1.08012 0.1 0.496959 0.00374705
1.10076 0.1 0.454752 0.00375582
1.10076 0.1 -0.454752 0.00375159
1.11928 0.1 -0.414214 0.00376072
1.11928 0.1 0.414214 0.00376382
1.04168 0.1 -0.58333 0.00372527
1.04168 0.1 0.58333 0.00373046
1.1744 0.1 -0.231981 0.00379227
1.1744 0.1 0.231981 0.00379189
0.871687 0.1 0.821002 0.00369838
0.411108 0.1 1.125 0.0037276
0.411108 0.1 -1.125 0.0037276
1.19808 0.1 1.73472e-17 0.00380703
0.990306 0.1 0.675 0.0037144
0.990306 0.1 -0.675 0.00370973
1.02149 0.1 0.628368 0.00372289
1.02149 0.1 -0.628368 0.00371766
1.19808 0.1 -0.0650961 0.00380656
1.19808 0.1 0.0650961 0.00380636
0 0.1 1.2 0.00375
0 0.1 -1.2 0.00375
0.871687 0.1 -0.825 0.00369566
0.905821 0.1 -0.7875 0.00369755
0.90582 0.1 0.7875 0.00370078
0.835106 0.1 -0.8625 0.00369434
0.835106 0.1 0.8625 0.0036962
0.93886 0.1 -0.75 0.00370194
0.93886 0.1 0.75 0.00370585
1.14316 0.1 -0.373132 0.00377185
1.14316 0.1 0.373132 0.00377398
0.969689 0.1 0.7125 0.00371136
0.969689 0.1 -0.7125 0.00370687
1.15704 0.1 -0.33574 0.0037792
1.15704 0.1 0.33574 0.0037804
0.756813 0.1 0.9375 0.00369649
0.756814 0.1 -0.9375 0.00369557
1.19808 0.1 0.130192 0.0038046
1.19808 0.1 -0.130192 0.00380501
0.797314 0.1 -0.903998 0.00369495
0.714971 0.1 0.975 0.00369879
0.714971 0.1 -0.975 0.00369819
0.150379 0.1 1.2 0.00374843
0.150379 0.1 -1.2 0.00374833
1.20938 0.1 -0.0322656 0.00381041
1.20938 0.1 0.0322656 0.00381036
1.1744 0.1 -0.298261 0.00378773
1.1744 0.1 0.298261 0.00378816
1.20938 0.1 -0.0967968 0.00380938
1.20938 0.1 0.0967968 0.00380909
1.19808 0.1 -0.195288 0.00380233
1.19808 0.1 0.195288 0.00380197
0.350249 0.1 1.1625 0.00373378
0.350249 0.1 -1.1625 0.00373373
0.67013 0.1 1.0125 0.00370166
0.67013 0.1 -1.0125 0.00370137
0 0.1 1.21799 0.00375
0 0.1 -1.21799 0.00375
0.0363518 0.1 -1.21799 0.00375111
0.0363518 0.1 1.21799 0.00375115
1.11928 0.1 -0.48325 0.00375277
1.11928 0.1 0.48325 0.00375799
1.10076 0.1 -0.524714 0.00374355
1.10076 0.1 0.524714 0.00374939
1.20938 0.1 0.161328 0.00380686
1.20938 0.1 -0.161328 0.00380731
1.08012 0.1 0.567953 0.00374009
1.08012 0.1 -0.567953 0.0037341
0.623803 0.1 1.05 0.00370587
0.623803 0.1 -1.05 0.00370562
1.0579 0.1 -0.612892 0.0037247
1.0579 0.1 0.612892 0.00373077
1.15704 0.1 -0.402888 0.00377234
1.15704 0.1 0.402888 0.00377545
1.14316 0.1 0.440974 0.00376864
1.14316 0.1 -0.440974 0.00376419
1.19808 0.1 -0.260384 0.00379844
1.19808 0.1 0.260384 0.00379856
1.2267 0.1 3.57064e-18 0.00381729
1.2267 0.1 -0.0636649 0.00381675
1.2267 0.1 0.0636649 0.00381668
1.1744 0.1 -0.364541 0.00378174
1.1744 0.1 0.364541 0.00378364
0.574156 0.1 1.0875 0.0037105
0.574156 0.1 -1.0875 0.00371032
1.20938 0.1 0.225859 0.00380383
1.20938 0.1 -0.225859 0.00380407
1.04168 0.1 -0.656246 0.00371709
1.04168 0.1 0.656246 0.00372313
1.2267 0.1 -0.12733 0.00381515
1.2267 0.1 0.12733 0.00381494
0.287374 0.1 1.2 0.00373923
0.287374 0.1 -1.2 0.00373911
1.02149 0.1 -0.702294 0.00370969
1.02149 0.1 0.702294 0.0037156
0.075776 0.1 -1.2375 0.00375202
0.075776 0.1 1.2375 0.0037521
0.871399 0.1 0.88201 0.00369486
0.522865 0.1 1.125 0.00371588
0.522865 0.1 -1.125 0.00371572
1.2267 0.1 -0.190994 0.00381245
1.2267 0.1 0.190994 0.00381228
1.19808 0.1 -0.32548 0.00379319
1.19808 0.1 0.32548 0.00379437
0.990306 0.1 -0.75 0.00370234
0.990306 0.1 0.75 0.00370755
1.24274 0.1 -0.0314313 0.00382286
1.24274 0.1 0.0314313 0.0038229
1.20938 0.1 -0.29039 0.00379958
1.20938 0.1 0.29039 0.00380003
1.24274 0.1 -0.0942942 0.00382176
1.24274 0.1 0.0942942 0.00382168
0.93886 0.1 0.821002 0.00370017
1.11928 0.1 -0.552285 0.00374426
1.11928 0.1 0.552285 0.00375085
1.15704 0.1 -0.470036 0.00376412
1.15704 0.1 0.470036 0.00376952
0.969689 0.1 -0.7875 0.00369974
0.96969 0.1 0.7875 0.00370478
0.93886 0.1 -0.825 0.00369558
0.90582 0.1 0.8625 0.00369552
0.905821 0.1 -0.8625 0.00369202
1.1744 0.1 -0.430821 0.00377407
1.1744 0.1 0.430821 0.00377825
1.10076 0.1 -0.594676 0.00373489
1.10076 0.1 0.594676 0.00374165
1.14316 0.1 -0.508816 0.00375568
1.14316 0.1 0.508816 0.00376215
1.24274 0.1 -0.157157 0.00381961
1.24274 0.1 0.157157 0.00381944
1.2267 0.1 -0.254659 0.00380855
1.2267 0.1 0.254659 0.00380881
0.467897 0.1 1.1625 0.00372165
0.467897 0.1 -1.1625 0.00372152
1.08012 0.1 0.638947 0.00373232
1.08012 0.1 -0.638947 0.00372533
1.25511 0.1 -5.78241e-19 0.00382846
0.835106 0.1 -0.9375 0.00369033
0.835106 0.1 0.9375 0.00369258
0.871687 0.1 -0.903998 0.00369128
1.25511 0.1 0.0622446 0.00382792
1.25511 0.1 -0.0622446 0.00382781
0.219992 0.1 1.2375 0.00374496
0.219992 0.1 -1.2375 0.00374481
0 0.1 -1.25701 0.00375
0 0.1 1.25701 0.00375
0.0363518 0.1 -1.25701 0.00375111
0.0363518 0.1 1.25701 0.00375115
0.797314 0.1 0.975 0.00369311
0.797314 0.1 -0.975 0.00369136
1.19808 0.1 -0.390576 0.00378636
1.19808 0.1 0.390576 0.00378934
1.0579 0.1 -0.684997 0.003716
1.0579 0.1 0.684997 0.00372303
1.20938 0.1 -0.354921 0.00379363
1.20938 0.1 0.354921 0.00379545
1.25511 0.1 0.124489 0.00382621
1.25511 0.1 -0.124489 0.00382608
1.24274 0.1 -0.220019 0.00381633
1.24274 0.1 0.220019 0.00381635
0.756813 0.1 1.0125 0.00369423
0.756814 0.1 -1.0125 0.00369302
1.2267 0.1 -0.318324 0.00380331
1.2267 0.1 0.318324 0.00380455
0.411108 0.1 1.2 0.00372754
0.411108 0.1 -1.2 0.00372737
1.25511 0.1 -0.186734 0.00382325
1.25511 0.1 0.186734 0.00382351
0.714971 0.1 1.05 0.00369712
0.714971 0.1 -1.05 0.00369621
1.04168 0.1 -0.729162 0.00370851
1.04168 0.1 0.729162 0.00371535
1.24274 0.1 0.282882 0.00381245
1.24274 0.1 -0.282882 0.00381184
0 0.1 1.275 0.00375
0 0.1 -1.275 0.00375
1.1744 0.1 0.497102 0.00377181
1.1744 0.1 -0.497102 0.00376527
1.15704 0.1 -0.537184 0.00375529
1.15704 0.1 0.537184 0.00376231
1.2756 0.1 -0.03061 0.00383727
1.2756 0.1 0.03061 0.00383743
0.67013 0.1 1.0875 0.0037005
0.67013 0.1 -1.0875 0.00369989
1.2756 0.1 -0.09183 0.003836
1.2756 0.1 0.09183 0.00383628
1.25511 0.1 -0.248978 0.00381924
1.25511 0.1 0.248978 0.00381993
1.20938 0.1 0.419453 0.00378999
1.20938 0.1 -0.419453 0.00378601
1.11928 0.1 -0.621322 0.00373504
1.11928 0.1 0.621322 0.00374278
1.14316 0.1 -0.576659 0.00374668
1.14316 0.1 0.576659 0.00375428
1.19808 0.1 -0.455673 0.00377801
1.19808 0.1 0.455673 0.00378339
1.02149 0.1 0.776219 0.00370798
1.02149 0.1 -0.776219 0.00370139
0.150379 0.1 1.275 0.00374843
0.150379 0.1 -1.275 0.00374831
1.2756 0.1 -0.15305 0.00383365
1.2756 0.1 0.15305 0.00383402
1.2267 0.1 -0.381989 0.00379651
1.2267 0.1 0.381989 0.00379945
1.10076 0.1 -0.664638 0.00372547
1.10076 0.1 0.664638 0.00373347