# kMean  POINT_DATA 63840
# x  y  z  kMean
0 0.5 3.39583e-17 0.00375
0 0.5 -0.00617931 0.00375
0 0.5 0.00617931 0.00375
0.0124865 0.5 -0.00617931 0.00375032
0.0124865 0.5 0.00617931 0.00375032
0 0.5 -0.0688207 0.00375
0 0.5 0.0688207 0.00375
0.0124865 0.5 -0.0688207 0.00375032
0.0124865 0.5 0.0688207 0.00375032
0 0.5 -0.075 0.00375
0 0.5 0.075 0.00375
0 0.5 -0.0811793 0.00375
0 0.5 0.0811793 0.00375
0.0124865 0.5 -0.0811793 0.00375032
0.0124865 0.5 0.0811793 0.00375033
0.075776 0.5 -0.0375 0.00375194
0.075776 0.5 0.0375 0.00375194
0.075776 0.5 -0.1125 0.00375197
0.075776 0.5 0.1125 0.00375199
0 0.5 -0.143821 0.00375
0 0.5 0.143821 0.00375
0.0124865 0.5 -0.143821 0.00375032
0.0124865 0.5 0.143821 0.00375033
0 0.5 -0.15 0.00375
0 0.5 0.15 0.00375
0.151149 0.5 -0.00137318 0.00375428
0 0.5 -0.156179 0.00375
0 0.5 0.156179 0.00375
0.0124865 0.5 -0.156179 0.00375034
0.0124865 0.5 0.156179 0.00375035
0.151149 0.5 0.075 0.00375433
0.151149 0.5 -0.075 0.00375434
0.075776 0.5 -0.1875 0.00375208
0.075776 0.5 0.1875 0.00375211
0.151149 0.5 0.15 0.00375447
0.151149 0.5 -0.15 0.00375449
0 0.5 -0.218821 0.00375
0 0.5 0.218821 0.00375
0.0124865 0.5 -0.218821 0.00375034
0.0124865 0.5 0.218821 0.00375035
0.219992 0.5 0.0375 0.00375648
0.219993 0.5 -0.0375 0.00375649
0 0.5 -0.225 0.00375
0 0.5 0.225 0.00375
0 0.5 -0.231179 0.00375
0 0.5 0.231179 0.00375
0.0124865 0.5 -0.231179 0.00375037
0.0124865 0.5 0.231179 0.00375037
0.219992 0.5 0.1125 0.0037566
0.219993 0.5 -0.1125 0.00375664
0.151149 0.5 -0.225 0.00375475
0.151149 0.5 0.225 0.00375472
0.075776 0.5 -0.2625 0.00375224
0.075776 0.5 0.2625 0.00375227
0.288069 0.5 -0.00137318 0.0037611
0.219992 0.5 0.1875 0.00375688
0.219993 0.5 -0.1875 0.00375695
0 0.5 0.293821 0.00375
0 0.5 -0.293821 0.00375
0.0124865 0.5 -0.293821 0.00375037
0.0124865 0.5 0.293821 0.00375037
0.288069 0.5 -0.075 0.00376124
0.288069 0.5 0.075 0.00376116
0 0.5 -0.3 0.00375
0 0.5 0.3 0.00375
0 0.5 0.306179 0.00375
0 0.5 -0.306179 0.00375
0.0124865 0.5 -0.306179 0.0037504
0.0124865 0.5 0.306179 0.00375041
0.288069 0.5 -0.15 0.0037615
0.288069 0.5 0.15 0.00376135
0.151149 0.5 -0.3 0.00375508
0.151149 0.5 0.3 0.00375505
0.219992 0.5 -0.2625 0.00375739
0.219992 0.5 0.2625 0.0037573
0.075776 0.5 0.3375 0.00375247
0.075776 0.5 -0.3375 0.00375243
0.350249 0.5 -0.0375 0.00376552
0.350249 0.5 0.0375 0.00376546
0.288069 0.5 -0.225 0.00376191
0.288069 0.5 0.225 0.0037617
0.350249 0.5 0.1125 0.00376554
0.350249 0.5 -0.1125 0.00376572
0 0.5 0.368821 0.00375
0 0.5 -0.368821 0.00375
0.0124865 0.5 -0.368821 0.0037504
0.0124865 0.5 0.368821 0.00375041
0 0.5 -0.375 0.00375
0 0.5 0.375 0.00375
0 0.5 -0.381179 0.00375
0 0.5 0.381179 0.00375
0.0124865 0.5 -0.381179 0.00375043
0.0124865 0.5 0.381179 0.00375044
0.350249 0.5 -0.1875 0.00376609
0.350249 0.5 0.1875 0.0037658
0.219992 0.5 -0.3375 0.00375792
0.219992 0.5 0.3375 0.00375782
0.151149 0.5 -0.375 0.00375546
0.151149 0.5 0.375 0.00375544
0.411736 0.5 -0.00137318 0.00377263
0.288069 0.5 -0.3 0.00376243
0.288069 0.5 0.3 0.00376218
0.411736 0.5 -0.075 0.00377282
0.411736 0.5 0.075 0.00377265
0.075776 0.5 -0.4125 0.00375263
0.075776 0.5 0.4125 0.00375268
0.350249 0.5 -0.2625 0.00376661
0.350249 0.5 0.2625 0.00376624
0.411736 0.5 -0.15 0.00377309
0.411736 0.5 0.15 0.00377276
0 0.5 -0.443821 0.00375
0 0.5 0.443821 0.00375
0.0124865 0.5 -0.443821 0.00375043
0.0124865 0.5 0.443821 0.00375044
0 0.5 -0.45 0.00375
0 0.5 0.45 0.00375
0 0.5 -0.456179 0.00375
0 0.5 0.456179 0.00375
0.0124865 0.5 -0.456179 0.00375047
0.0124865 0.5 0.456179 0.00375048
0.219992 0.5 -0.4125 0.00375849
0.219993 0.5 0.4125 0.0037584
0.411736 0.5 -0.225 0.00377348
0.411736 0.5 0.225 0.00377302
0.467897 0.5 0.0375 0.0037794
0.467897 0.5 -0.0375 0.0037795
0.288069 0.5 -0.375 0.00376302
0.288069 0.5 0.375 0.00376275
0.151149 0.5 -0.45 0.00375586
0.151149 0.5 0.45 0.00375585
0.467897 0.5 -0.1125 0.00377969
0.467897 0.5 0.1125 0.00377937
0.350249 0.5 0.3375 0.00376679
0.350249 0.5 -0.3375 0.00376721
0.075776 0.5 -0.4875 0.00375284
0.075776 0.5 0.4875 0.0037529
0.467897 0.5 -0.1875 0.00377999
0.467897 0.5 0.1875 0.00377948
0.411736 0.5 -0.3 0.00377396
0.411736 0.5 0.3 0.00377342
0 0.5 -0.518821 0.00375
0 0.5 0.518821 0.00375
0.0124865 0.5 0.518821 0.00375048
0.0124865 0.5 -0.518821 0.00375047
0.523432 0.5 -0.00137318 0.00378893
0 0.5 -0.525 0.00375
0 0.5 0.525 0.00375
0.523432 0.5 -0.075 0.00378913
0.523432 0.5 0.075 0.0037889
0 0.5 -0.531179 0.00375
0 0.5 0.531179 0.00375
0.0124865 0.5 -0.531179 0.0037505
0.0124865 0.5 0.531179 0.00375051
0.288069 0.5 -0.45 0.00376362
0.288069 0.5 0.45 0.00376337
0.219992 0.5 -0.4875 0.00375908
0.219993 0.5 0.4875 0.00375901
0.467897 0.5 -0.2625 0.00378037
0.467897 0.5 0.2625 0.00377973
0.350249 0.5 -0.4125 0.00376785
0.350249 0.5 0.4125 0.00376741
0.523432 0.5 -0.15 0.0037893
0.523432 0.5 0.15 0.00378884
0.151149 0.5 -0.525 0.00375626
0.151149 0.5 0.525 0.00375626
0.411736 0.5 -0.375 0.00377447
0.411736 0.5 0.375 0.0037739
0.075776 0.5 -0.5625 0.00375304
0.075776 0.5 0.5625 0.00375311
0.523432 0.5 -0.225 0.00378953
0.523432 0.5 0.225 0.00378888
0.574156 0.5 -0.0375 0.00379809
0.574156 0.5 0.0375 0.00379796
0.467897 0.5 0.3375 0.00378009
0.467897 0.5 -0.3375 0.0037808
0.574156 0.5 -0.1125 0.00379818
0.574156 0.5 0.1125 0.0037978
0 0.5 -0.593821 0.00375
0 0.5 0.593821 0.00375
0.0124865 0.5 -0.593821 0.0037505
0.0124865 0.5 0.593821 0.00375051
0.288069 0.5 -0.525 0.00376421
0.288069 0.5 0.525 0.00376399
0 0.5 -0.6 0.00375
0 0.5 0.6 0.00375
0.350249 0.5 -0.4875 0.00376847
0.350249 0.5 0.4875 0.00376807
0.523432 0.5 -0.3 0.00378976
0.523432 0.5 0.3 0.00378901
0.219992 0.5 -0.5625 0.00375964
0.219992 0.5 0.5625 0.00375961
0.574156 0.5 -0.1875 0.00379829
0.574156 0.5 0.1875 0.00379767
0 0.5 -0.606179 0.00375
0 0.5 0.606179 0.00375
0.0124865 0.5 -0.606179 0.00375053
0.0124865 0.5 0.606179 0.00375054
0.411736 0.5 -0.45 0.00377497
0.411736 0.5 0.45 0.00377441
0.151149 0.5 -0.6 0.00375663
0.151149 0.5 0.6 0.00375666
0.62168 0.5 2.64545e-17 0.00380896
0.467897 0.5 0.4125 0.00378048
0.467897 0.5 -0.4125 0.0037812
0.624316 0.5 0.0729402 0.00380949
0.624316 0.5 -0.075 0.00380972
0.574156 0.5 -0.2625 0.00379842
0.574157 0.5 0.2625 0.00379759
0.075776 0.5 -0.6375 0.00375322
0.075776 0.5 0.6375 0.0037533
0.624316 0.5 -0.15 0.00380971
0.624316 0.5 0.15 0.00380923
0.523432 0.5 -0.375 0.00378994
0.523432 0.5 0.375 0.00378918
0.350249 0.5 -0.5625 0.00376904
0.350249 0.5 0.5625 0.0037687
0.624316 0.5 -0.225 0.00380963
0.624316 0.5 0.225 0.00380894
0.288069 0.5 0.6 0.00376459
0.288069 0.5 -0.6 0.00376474
0.574156 0.5 -0.3375 0.00379842
0.574156 0.5 0.3375 0.0037976
0.411736 0.5 -0.525 0.00377541
0.411736 0.5 0.525 0.00377491
0 0.5 -0.668821 0.00375
0 0.5 0.668821 0.00375
0.0124865 0.5 -0.668821 0.00375053
0.0124865 0.5 0.668821 0.00375054
0.67013 0.5 0.0375 0.00382065
0.67013 0.5 -0.0375 0.00382075
0.219993 0.5 -0.6375 0.00376014
0.219993 0.5 0.6375 0.00376016
0 0.5 -0.675 0.00375
0 0.5 0.675 0.00375
0.467897 0.5 0.4875 0.00378087
0.467897 0.5 -0.4875 0.00378154
0.67013 0.5 -0.1125 0.00382068
0.67013 0.5 0.1125 0.00382034
0 0.5 -0.681179 0.00375
0 0.5 0.681179 0.00375
0.0124865 0.5 -0.681179 0.00375056
0.0124865 0.5 0.681179 0.00375057
0.523432 0.5 -0.45 0.00379005
0.523432 0.5 0.45 0.00378932
0.151149 0.5 -0.675 0.00375695
0.151149 0.5 0.675 0.00375701
0.624316 0.5 -0.3 0.00380942
0.624316 0.5 0.3 0.00380865
0.67013 0.5 0.1875 0.00381991
0.67013 0.5 -0.1875 0.00382049
0.574156 0.5 -0.4125 0.00379834
0.574157 0.5 0.4125 0.00379754
0.708171 0.5 1.88651e-17 0.00383193
0.075776 0.5 -0.7125 0.00375338
0.075776 0.5 0.7125 0.00375346
0.715434 0.5 0.0736268 0.0038336
0.715434 0.5 -0.075 0.00383405
0.67013 0.5 0.2625 0.0038194
0.67013 0.5 -0.2625 0.00382015
0.350249 0.5 -0.6375 0.00376953
0.350249 0.5 0.6375 0.00376929
0.411736 0.5 -0.6 0.00377576
0.411736 0.5 0.6 0.00377537
0.624316 0.5 -0.375 0.00380906
0.624316 0.5 0.375 0.00380833
0.715434 0.5 -0.15 0.00383375
0.715434 0.5 0.15 0.00383338
0.467897 0.5 -0.5625 0.00378179
0.467897 0.5 0.5625 0.00378123
0.288069 0.5 -0.675 0.00376519
0.288069 0.5 0.675 0.00376513
0.523432 0.5 -0.525 0.00379004
0.523432 0.5 0.525 0.00378942
0 0.5 -0.743821 0.00375
0 0.5 0.743821 0.00375
0.0124865 0.5 -0.743821 0.00375056
0.0124865 0.5 0.743821 0.00375057
0.219992 0.5 0.7125 0.00376065
0.219992 0.5 -0.7125 0.00376058
0.715434 0.5 -0.225 0.00383323
0.715434 0.5 0.225 0.0038327
0 0.5 -0.75 0.00375
0 0.5 0.75 0.00375
0.67013 0.5 0.3375 0.00381886
0.67013 0.5 -0.3375 0.00381957
0.574156 0.5 -0.4875 0.00379813
0.574156 0.5 0.4875 0.00379742
0 0.5 -0.756179 0.00375
0 0.5 0.756179 0.00375
0.0124865 0.5 -0.756179 0.00375058
0.0124865 0.5 0.756179 0.00375059
0.756813 0.5 -0.0375 0.0038469
0.756813 0.5 0.0375 0.00384685
0.151149 0.5 -0.75 0.00375722
0.151149 0.5 0.75 0.00375731
0.756813 0.5 -0.1125 0.00384659
0.756813 0.5 0.1125 0.0038464
0.624316 0.5 -0.45 0.00380855
0.624316 0.5 0.45 0.00380792
0.715434 0.5 -0.3 0.00383246
0.715434 0.5 0.3 0.00383188
0.756813 0.5 0.1875 0.00384563
0.756813 0.5 -0.1875 0.00384599
0.67013 0.5 -0.4125 0.00381882
0.67013 0.5 0.4125 0.00381821
0.411736 0.5 -0.675 0.003776
0.411736 0.5 0.675 0.00377577
0.467897 0.5 0.6375 0.00378152
0.467897 0.5 -0.6375 0.00378192
0.075776 0.5 -0.7875 0.0037535
0.075776 0.5 0.7875 0.00375359
0.350249 0.5 -0.7125 0.00376991
0.350249 0.5 0.7125 0.0037698
0.523432 0.5 -0.6 0.0037899
0.523432 0.5 0.6 0.00378946
0.797732 0.5 2.68882e-17 0.00386181
0.756813 0.5 -0.2625 0.00384506
0.756814 0.5 0.2625 0.00384463
0.797732 0.5 0.0736268 0.00386142
0.797732 0.5 -0.075 0.00386157
0.288069 0.5 -0.75 0.00376555
0.288069 0.5 0.75 0.00376558
0.574156 0.5 -0.5625 0.00379777
0.574157 0.5 0.5625 0.00379723
0.715434 0.5 -0.375 0.00383139
0.715434 0.5 0.375 0.00383094
0.797732 0.5 -0.15 0.00386088
0.797732 0.5 0.15 0.00386078
0.624316 0.5 -0.525 0.00380784
0.624316 0.5 0.525 0.00380739
0.219992 0.5 -0.7875 0.00376092
0.219992 0.5 0.7875 0.00376105
0 0.5 -0.818821 0.00375
0 0.5 0.818821 0.00375
0.0124865 0.5 0.818821 0.00375059
0.0124865 0.5 -0.818821 0.00375058
0 0.5 -0.825 0.00375
0 0.5 0.825 0.00375
0.756813 0.5 0.3375 0.00384343
0.756814 0.5 -0.3375 0.00384385
0.67013 0.5 -0.4875 0.00381783
0.67013 0.5 0.4875 0.00381741
0.797732 0.5 -0.225 0.00385977
0.797732 0.5 0.225 0.00385963
0 0.5 -0.831179 0.00375
0 0.5 0.831179 0.00375
0.0124865 0.5 -0.831179 0.00375059
0.0124865 0.5 0.831179 0.00375061
0.835106 0.5 0.0375 0.00387613
0.835106 0.5 -0.0375 0.00387608
0.151149 0.5 -0.825 0.00375742
0.151149 0.5 0.825 0.00375755
0.835106 0.5 0.1125 0.00387551
0.835106 0.5 -0.1125 0.00387544
0.715434 0.5 -0.45 0.00383004
0.715434 0.5 0.45 0.00382983
0.797732 0.5 -0.3 0.00385826
0.797732 0.5 0.3 0.00385816
0.467897 0.5 0.7125 0.00378171
0.467897 0.5 -0.7125 0.0037819
0.523432 0.5 -0.675 0.00378961
0.523432 0.5 0.675 0.0037894
0.411736 0.5 -0.75 0.00377611
0.411736 0.5 0.75 0.00377606
0.835106 0.5 -0.1875 0.00387426
0.835106 0.5 0.1875 0.00387433
0.574156 0.5 -0.6375 0.00379724
0.574157 0.5 0.6375 0.00379695
0.350249 0.5 -0.7875 0.00377017
0.350249 0.5 0.7875 0.0037702
0.756813 0.5 -0.4125 0.00384218
0.756814 0.5 0.4125 0.0038421
0.075776 0.5 -0.8625 0.00375359
0.075776 0.5 0.8625 0.00375368
0.624316 0.5 0.6 0.00380675
0.624316 0.5 -0.6 0.00380695
0.872064 0.5 5.91974e-17 0.00389174
0.870122 0.5 0.075 0.00389051
0.288069 0.5 -0.825 0.00376579
0.288069 0.5 0.825 0.00376592
0.67013 0.5 -0.5625 0.00381662
0.67013 0.5 0.5625 0.00381646
0.872064 0.5 -0.075 0.00389131
0.835106 0.5 -0.2625 0.00387255
0.835106 0.5 0.2625 0.0038727
0.797732 0.5 -0.375 0.00385633
0.797732 0.5 0.375 0.00385644
0.872064 0.5 0.14794 0.00389055
0.872064 0.5 -0.15 0.00389027
0.715434 0.5 -0.525 0.00382842
0.715434 0.5 0.525 0.00382849
0.219992 0.5 0.8625 0.00376136
0.219993 0.5 -0.8625 0.00376117
0 0.5 -0.893821 0.00375
0 0.5 0.893821 0.00375
0.0124865 0.5 -0.893821 0.00375059
0.0124865 0.5 0.893821 0.00375061
0 0.5 -0.9 0.00375
0 0.5 0.9 0.00375
0.756813 0.5 -0.4875 0.00384021
0.756813 0.5 0.4875 0.00384044
0.872064 0.5 -0.225 0.00388864
0.872064 0.5 0.225 0.00388905
0.835106 0.5 -0.3375 0.00387038
0.835106 0.5 0.3375 0.00387066
0 0.5 0.906179 0.00375
0 0.5 -0.906179 0.00375
0.0124865 0.5 -0.906179 0.0037506
0.0124865 0.5 0.906179 0.00375062
0.90582 0.5 -0.0375 0.00390669
0.90582 0.5 0.0375 0.00390686
0.151149 0.5 -0.9 0.00375756
0.151149 0.5 0.9 0.00375772
0.90582 0.5 -0.1125 0.00390584
0.905821 0.5 0.1125 0.00390624
0.523432 0.5 -0.75 0.00378917
0.523432 0.5 0.75 0.00378923
0.574156 0.5 -0.7125 0.00379654
0.574156 0.5 0.7125 0.00379655
0.797732 0.5 -0.45 0.00385397
0.797732 0.5 0.45 0.00385448
0.467897 0.5 0.7875 0.00378179
0.467897 0.5 -0.7875 0.00378175
0.624316 0.5 -0.675 0.00380586
0.624316 0.5 0.675 0.00380599
0.411736 0.5 -0.825 0.00377609
0.411736 0.5 0.825 0.00377623
0.872064 0.5 0.3 0.00388704
0.872064 0.5 -0.3 0.00388642
0.67013 0.5 -0.6375 0.00381519
0.67013 0.5 0.6375 0.00381537
0.90582 0.5 0.1875 0.00390492
0.905821 0.5 -0.1875 0.00390435
0.350249 0.5 -0.8625 0.0037703
0.350249 0.5 0.8625 0.00377048
0.835106 0.5 -0.4125 0.00386774
0.835106 0.5 0.4125 0.00386841
0.715434 0.5 -0.6 0.00382653
0.715434 0.5 0.6 0.00382697
0.939201 0.5 2.75387e-17 0.0039222
0.075776 0.5 0.9375 0.00375374
0.075776 0.5 -0.9375 0.00375364
0.939111 0.5 0.075 0.00392196
0.939201 0.5 -0.075 0.00392161
0.756813 0.5 0.5625 0.00383854
0.756814 0.5 -0.5625 0.00383794
0.90582 0.5 0.2625 0.00390304
0.905821 0.5 -0.2625 0.00390222
0.288069 0.5 -0.9 0.00376592
0.288069 0.5 0.9 0.00376615
0.872064 0.5 -0.375 0.00388358
0.872064 0.5 0.375 0.00388453
0.939201 0.5 0.148627 0.00392091
0.939201 0.5 -0.15 0.0039203
0.797732 0.5 -0.525 0.00385124
0.797732 0.5 0.525 0.0038522
0.219992 0.5 0.9375 0.00376157
0.219992 0.5 -0.9375 0.00376132
0.939201 0.5 -0.225 0.0039183
0.939201 0.5 0.225 0.00391936
0.905821 0.5 -0.3375 0.00389939
0.90582 0.5 0.3375 0.00390058
0.835106 0.5 -0.4875 0.00386464
0.835106 0.5 0.4875 0.00386585
0 0.5 0.968821 0.00375
0 0.5 -0.968821 0.00375
0.0124865 0.5 -0.968821 0.0037506
0.0124865 0.5 0.968821 0.00375062
0.969689 0.5 -0.0375 0.00393696
0.969689 0.5 0.0375 0.00393725
0.574156 0.5 -0.7875 0.00379568
0.574156 0.5 0.7875 0.00379603
0 0.5 -0.975 0.00375
0 0.5 0.975 0.00375
0.624316 0.5 -0.75 0.0038046
0.624316 0.5 0.75 0.0038051
0.969689 0.5 -0.1125 0.00393588
0.96969 0.5 0.1125 0.00393665
0.523432 0.5 -0.825 0.00378858
0.523432 0.5 0.825 0.00378893
0.67013 0.5 0.7125 0.00381414
0.67013 0.5 -0.7125 0.00381355
0 0.5 -0.981179 0.00375
0 0.5 0.981179 0.00375
0.467897 0.5 0.8625 0.00378174
0.467897 0.5 -0.8625 0.00378144
0.0124865 0.5 -0.981179 0.0037506
0.0124865 0.5 0.981179 0.00375062
0.872064 0.5 -0.45 0.00388012
0.872064 0.5 0.45 0.0038816
0.715434 0.5 -0.675 0.00382442
0.715434 0.5 0.675 0.00382528
0.939201 0.5 -0.3 0.00391557
0.939201 0.5 0.3 0.00391706
0.151149 0.5 0.975 0.00375782
0.151149 0.5 -0.975 0.00375763
0.969689 0.5 -0.1875 0.00393407
0.969689 0.5 0.1875 0.00393525
0.756813 0.5 -0.6375 0.00383539
0.756813 0.5 0.6375 0.00383645
0.411736 0.5 -0.9 0.00377592
0.411736 0.5 0.9 0.00377626
0.90582 0.5 -0.4125 0.00389569
0.90582 0.5 0.4125 0.00389732
0.995005 0.5 0.0749309 0.00394834
0.797732 0.5 -0.6 0.00384819
0.797732 0.5 0.6 0.00384963
1.00005 0.5 -8.47123e-18 0.00395101
0.350249 0.5 -0.9375 0.00377029
0.350249 0.5 0.9375 0.00377061
1.00005 0.5 -0.0749309 0.00395026
0.969689 0.5 -0.2625 0.00393153
0.969689 0.5 0.2625 0.00393317
0.835106 0.5 -0.5625 0.00386114
0.835106 0.5 0.5625 0.00386287
1.00005 0.5 -0.149862 0.00394872
0.939201 0.5 -0.375 0.00391197
0.939201 0.5 0.375 0.003914
1.00029 0.5 0.148988 0.00394961
0.075776 0.5 -1.0125 0.00375366
0.075776 0.5 1.0125 0.00375377
0.288069 0.5 0.975 0.00376626
0.288069 0.5 -0.975 0.00376592
0.872064 0.5 -0.525 0.00387615
0.872064 0.5 0.525 0.00387828
1.00005 0.5 0.224793 0.00394814
1.00005 0.5 -0.224793 0.00394643
0.969689 0.5 0.3375 0.0039304
0.96969 0.5 -0.3375 0.00392814
1.0271 0.5 -0.0368226 0.00396607
1.0271 0.5 0.0368226 0.00396646
0.90582 0.5 0.4875 0.00389372
0.905821 0.5 -0.4875 0.00389132
1.0271 0.5 -0.110468 0.00396483
1.0271 0.5 0.110468 0.00396742
0.67013 0.5 0.7875 0.00381277
0.67013 0.5 -0.7875 0.00381174
0.624316 0.5 0.825 0.00380408
0.624316 0.5 -0.825 0.00380316
0.219993 0.5 -1.0125 0.00376137
0.219993 0.5 1.0125 0.00376167
0.574156 0.5 -0.8625 0.00379466
0.574156 0.5 0.8625 0.00379537
0.715434 0.5 -0.75 0.0038221
0.715434 0.5 0.75 0.00382345
0.756813 0.5 0.7125 0.00383418
0.756814 0.5 -0.7125 0.0038326
0.523432 0.5 -0.9 0.00378782
0.523432 0.5 0.9 0.00378849
0.939201 0.5 -0.45 0.00390734
0.939201 0.5 0.45 0.00391019
1.04168 0.5 0 0.00397412
1.0271 0.5 -0.184113 0.00396281
1.0271 0.5 0.184113 0.00396455
0 0.5 -1.04382 0.00375
0 0.5 1.04382 0.00375
0.0124865 0.5 -1.04382 0.0037506
0.0124865 0.5 1.04382 0.00375062
1.00005 0.5 -0.299723 0.00394332
1.00005 0.5 0.299723 0.00394567
1.04168 0.5 -0.0729162 0.00397326
1.04168 0.5 0.0729162 0.00397408
0.797732 0.5 -0.675 0.00384485
0.797732 0.5 0.675 0.00384684
0.467897 0.5 0.9375 0.00378153
0.467897 0.5 -0.9375 0.00378098
0 0.5 -1.05 0.00375
0 0.5 1.05 0.00375
0.835106 0.5 -0.6375 0.0038573
0.835106 0.5 0.6375 0.00385961
1.04168 0.5 -0.145832 0.00397157
1.04168 0.5 0.145832 0.00397313
0.969689 0.5 -0.4125 0.00392368
0.96969 0.5 0.4125 0.00392664
0 0.5 -1.05618 0.00375
0 0.5 1.05618 0.00375
0.0124865 0.5 -1.05618 0.0037506
0.0124865 0.5 1.05618 0.00375062
1.05695 0.5 -0.0360764 0.00398181
1.05695 0.5 0.0360764 0.00398227
0.411736 0.5 -0.975 0.0037756
0.411736 0.5 0.975 0.00377615
0.872064 0.5 -0.6 0.00387175
0.872064 0.5 0.6 0.00387455
1.0271 0.5 -0.257759 0.00396
1.0271 0.5 0.257759 0.0039624
0.151149 0.5 -1.05 0.00375763
0.151149 0.5 1.05 0.00375786
1.05695 0.5 0.108229 0.0039834
1.05695 0.5 -0.108229 0.00398047
1.04168 0.5 -0.218749 0.0039691
1.04168 0.5 0.218749 0.00397135
0.90582 0.5 -0.5625 0.00388647
0.905821 0.5 0.5625 0.0038896
1.00005 0.5 -0.374654 0.00393925
1.00005 0.5 0.374654 0.00394236
0.350249 0.5 1.0125 0.00377062
0.350249 0.5 -1.0125 0.00377013
1.05695 0.5 -0.180382 0.00397833
1.05695 0.5 0.180382 0.00398042
1.07319 0.5 0.0709442 0.00399149
0.939201 0.5 -0.525 0.00390191
0.939201 0.5 0.525 0.00390564
1.0271 0.5 -0.331404 0.00395632
1.0271 0.5 0.331404 0.00395952
1.08112 0.5 3.23815e-17 0.00399597
1.04168 0.5 -0.291665 0.0039658
1.04168 0.5 0.291665 0.00396882
1.08112 0.5 -0.0709442 0.003995
0.969689 0.5 -0.4875 0.00391771
0.96969 0.5 0.4875 0.00392207
1.05695 0.5 0.252535 0.00397824
1.05695 0.5 -0.252535 0.00397539
0.288069 0.5 -1.05 0.00376581
0.288069 0.5 1.05 0.00376626
0.075776 0.5 -1.0875 0.00375365
0.075776 0.5 1.0875 0.00375377
1.08112 0.5 -0.141888 0.00399316
1.08145 0.5 0.140165 0.00399459
0.715434 0.5 0.825 0.00382147
0.715434 0.5 -0.825 0.00381961
0.756813 0.5 0.7875 0.00383175
0.756814 0.5 -0.7875 0.00382962
0.67013 0.5 -0.8625 0.00380976
0.67013 0.5 0.8625 0.00381127
0.797732 0.5 -0.75 0.00384128
0.797732 0.5 0.75 0.00384387
0.624316 0.5 -0.9 0.00380158
0.624316 0.5 0.9 0.00380291
1.00005 0.5 -0.449585 0.0039338
1.00005 0.5 0.449585 0.00393812
0.835106 0.5 -0.7125 0.00385319
0.835106 0.5 0.7125 0.00385614
0.574156 0.5 -0.9375 0.00379348
0.574157 0.5 0.9375 0.00379456
1.10076 0.5 -0.0349809 0.00400718
1.10076 0.5 0.0349809 0.00400773
1.08112 0.5 -0.212832 0.00399052
1.08112 0.5 0.212832 0.00399332
0.872064 0.5 -0.675 0.00386698
0.872064 0.5 0.675 0.0038705
1.04168 0.5 -0.364581 0.00396153
1.04168 0.5 0.364581 0.00396547
1.0271 0.5 0.405049 0.00395569
1.0271 0.5 -0.405049 0.00395153
1.05695 0.5 -0.324688 0.00397159
1.05695 0.5 0.324688 0.00397534
1.10076 0.5 -0.104943 0.00400569
1.10076 0.5 0.104943 0.00400734
0.523432 0.5 0.975 0.0037879
0.523432 0.5 -0.975 0.00378691
0.90582 0.5 0.6375 0.00388509
0.905821 0.5 -0.6375 0.00388111
0.219992 0.5 1.0875 0.00376168
0.219992 0.5 -1.0875 0.00376132
1.11376 0.5 3.81639e-17 0.00401532
0.939201 0.5 0.6 0.00390049
0.939201 0.5 -0.6 0.00389603
1.10076 0.5 -0.174905 0.00400336
1.10076 0.5 0.174905 0.00400598
0.467897 0.5 -1.0125 0.00378035
0.467897 0.5 1.0125 0.00378117
1.11376 0.5 -0.0693118 0.00401425
1.11376 0.5 0.0693118 0.00401542
1.08112 0.5 0.283777 0.00399075
1.08112 0.5 -0.283777 0.00398703
0 0.5 -1.11882 0.00375
0 0.5 1.11882 0.00375
0.0124865 0.5 -1.11882 0.0037506
0.0124865 0.5 1.11882 0.00375062
0.969689 0.5 -0.5625 0.00391123
0.969689 0.5 0.5625 0.00391621
1.11376 0.5 0.138624 0.00401445
1.11376 0.5 -0.138624 0.00401228
0 0.5 -1.125 0.00375
0 0.5 1.125 0.00375
1.10076 0.5 0.244866 0.00400376
1.10076 0.5 -0.244866 0.00400022
0.411736 0.5 -1.05 0.00377513
0.411736 0.5 1.05 0.00377589
1.05695 0.5 -0.396841 0.00396671
1.05695 0.5 0.396841 0.00397151
1.00005 0.5 -0.524516 0.00392727
1.00005 0.5 0.524516 0.00393275
1.04168 0.5 -0.437497 0.00395588
1.04168 0.5 0.437497 0.00396118
0 0.5 -1.13118 0.00375
0 0.5 1.13118 0.00375
0.0124865 0.5 -1.13118 0.0037506
0.0124865 0.5 1.13118 0.00375062
1.11376 0.5 -0.207935 0.00400948
1.11376 0.5 0.207935 0.00401277
1.0271 0.5 -0.478694 0.00394515
1.0271 0.5 0.478694 0.00395091
0.151149 0.5 -1.125 0.00375757
0.151149 0.5 1.125 0.00375782
1.08112 0.5 -0.354722 0.00398259
1.08112 0.5 0.354722 0.00398736
1.13882 0.5 -0.0340295 0.0040305
1.13882 0.5 0.0340295 0.00403114
0.350249 0.5 -1.0875 0.00376985
0.350249 0.5 1.0875 0.00377048
1.13882 0.5 -0.102088 0.00402885
1.13882 0.5 0.102088 0.0040317
1.10076 0.5 -0.314829 0.00399621
1.10076 0.5 0.314829 0.0040008
0.756813 0.5 -0.8625 0.00382649
0.756814 0.5 0.8625 0.00382919
0.797732 0.5 -0.825 0.00383754
0.797732 0.5 0.825 0.00384075
1.11376 0.5 -0.277247 0.00400583
1.11376 0.5 0.277247 0.00401016
0.835106 0.5 0.7875 0.00385249
0.835106 0.5 -0.7875 0.00384886
0.715434 0.5 -0.9 0.00381697
0.715434 0.5 0.9 0.00381935
0.872064 0.5 -0.75 0.00386195
0.872064 0.5 0.75 0.00386621
1.13882 0.5 0.170147 0.00402949
1.13882 0.5 -0.170147 0.00402634
0.67013 0.5 -0.9375 0.00380764
0.67013 0.5 0.9375 0.00380962
0.905821 0.5 -0.7125 0.00387541
0.905821 0.5 0.7125 0.00388021
1.05695 0.5 0.468994 0.00396675
1.05695 0.5 -0.468994 0.00396016
0.939201 0.5 -0.675 0.00388977
0.939201 0.5 0.675 0.00389508
0.624316 0.5 0.975 0.0038016
0.624316 0.5 -0.975 0.00379984
1.04168 0.5 -0.510414 0.00394902
1.04168 0.5 0.510414 0.00395574
0.969689 0.5 -0.6375 0.00390449
0.96969 0.5 0.6375 0.00391014
0.288069 0.5 -1.125 0.00376558
0.288069 0.5 1.125 0.00376613
1.16179 0.5 5.78241e-19 0.00404611
1.08112 0.5 0.425666 0.00398306
1.08112 0.5 -0.425666 0.00397678
1.13882 0.5 -0.238206 0.00402298
1.13882 0.5 0.238206 0.00402724
1.16179 0.5 0.0669104 0.00404877
1.16179 0.5 -0.0669104 0.00404487
0.574156 0.5 -1.0125 0.00379213
0.574156 0.5 1.0125 0.00379359
0.075776 0.5 -1.1625 0.00375361
0.075776 0.5 1.1625 0.00375373
1.00005 0.5 -0.599447 0.00392029
1.00005 0.5 0.599447 0.00392643
1.10076 0.5 0.384791 0.00399694
1.10076 0.5 -0.384791 0.00399117
1.0271 0.5 -0.55234 0.00393807
1.0271 0.5 0.55234 0.0039448
1.11376 0.5 -0.346559 0.00400123
1.11376 0.5 0.346559 0.00400672
1.16179 0.5 -0.133821 0.00404267
1.16179 0.5 0.133821 0.00404589
0.523432 0.5 -1.05 0.00378584
0.523432 0.5 1.05 0.00378715
1.17463 0.5 -0.0331343 0.00405363
1.17463 0.5 0.0331343 0.00405436
1.17463 0.5 -0.0994029 0.00405181
1.17463 0.5 0.0994029 0.00405412
1.16179 0.5 -0.200731 0.00403959
1.16179 0.5 0.200731 0.00404375
1.13882 0.5 -0.306265 0.00401874
1.13882 0.5 0.306265 0.0040242
0.219992 0.5 -1.1625 0.00376117
0.219992 0.5 1.1625 0.00376158
0.467897 0.5 -1.0875 0.00377958
0.467897 0.5 1.0875 0.00378066
1.17463 0.5 0.165672 0.0040528
1.17463 0.5 -0.165672 0.0040491
1.05695 0.5 -0.541147 0.00395286
1.05695 0.5 0.541147 0.00396066
1.18772 0.5 -5.78241e-19 0.004063
1.11376 0.5 -0.41587 0.00399529
1.11376 0.5 0.41587 0.00400239
1.18772 0.5 -0.065614 0.00406167
1.18772 0.5 0.065614 0.00406327
1.08112 0.5 -0.49661 0.00396971
1.08112 0.5 0.49661 0.00397766
1.10076 0.5 -0.454752 0.00398444
1.10076 0.5 0.454752 0.00399218
1.18534 0.5 0.118202 0.00406252
1.16179 0.5 -0.267642 0.00403563
1.16179 0.5 0.267642 0.00404105
0 0.5 -1.19382 0.00375
0 0.5 1.19382 0.00375
0.0124865 0.5 1.19382 0.00375062
0.0124865 0.5 -1.19382 0.0037506
1.04168 0.5 -0.58333 0.0039416
1.04168 0.5 0.58333 0.00394913
1.18772 0.5 -0.131228 0.00405934
1.17463 0.5 -0.23194 0.00404552
1.17463 0.5 0.23194 0.0040505
0.411736 0.5 -1.125 0.00377454
0.411736 0.5 1.125 0.00377551
1.13882 0.5 -0.374324 0.00401346
1.13882 0.5 0.374324 0.00402028
0 0.5 -1.2 0.00375
0 0.5 1.2 0.00375
0.905821 0.5 0.7875 0.00387508
0.905821 0.5 -0.7875 0.00386951
0.872064 0.5 -0.825 0.00385674
0.872064 0.5 0.825 0.00386173
0.835106 0.5 0.8625 0.00384869
0.835106 0.5 -0.8625 0.00384437
0.939201 0.5 -0.75 0.00388319
0.939201 0.5 0.75 0.00388942
0.797732 0.5 -0.9 0.00383365
0.797732 0.5 0.9 0.00383749
1.0271 0.5 0.625985 0.00393783
1.0271 0.5 -0.625985 0.00393051
0.969689 0.5 0.7125 0.00390405
0.96969 0.5 -0.7125 0.00389728
1.18772 0.5 -0.196842 0.0040561
1.18772 0.5 0.196842 0.00406071
0.756814 0.5 -0.9375 0.00382321
0.756814 0.5 0.9375 0.0038265
0 0.5 1.20618 0.00375
0 0.5 -1.20618 0.00375
1.00005 0.5 -0.674378 0.00391273
1.00005 0.5 0.674378 0.0039198
0.0124865 0.5 1.20618 0.00375061
0.0124865 0.5 -1.20618 0.00375059
1.16179 0.5 -0.334552 0.00403073
1.16179 0.5 0.334552 0.00403751
0.715434 0.5 0.975 0.00381711
0.715434 0.5 -0.975 0.00381418
0.151149 0.5 -1.2 0.00375744
0.151149 0.5 1.2 0.00375772
1.20942 0.5 0.0322645 0.00407891
1.20942 0.5 -0.0322645 0.00407778
1.17463 0.5 -0.298209 0.00404104
1.17463 0.5 0.298209 0.00404737
1.20942 0.5 -0.0967935 0.00407578
1.20942 0.5 0.0967935 0.00407845
0.350249 0.5 -1.1625 0.00376944
0.350249 0.5 1.1625 0.00377023
0.67013 0.5 1.0125 0.00380784
0.67013 0.5 -1.0125 0.00380538
1.11376 0.5 0.485183 0.00399701
1.11376 0.5 -0.485183 0.00398805
1.18772 0.5 0.262456 0.00405796
1.18772 0.5 -0.262456 0.00405197
1.10076 0.5 -0.524714 0.00397686
1.10076 0.5 0.524714 0.00398618
1.20942 0.5 -0.161322 0.00407286
1.20942 0.5 0.161322 0.00407715
1.08112 0.5 -0.567554 0.00396204
1.08112 0.5 0.567554 0.00397103
0.624316 0.5 -1.05 0.00379796
0.624316 0.5 1.05 0.00380014
1.13882 0.5 -0.442383 0.00400661
1.13882 0.5 0.442383 0.00401546
1.05695 0.5 0.6133 0.00395352
1.05695 0.5 -0.6133 0.00394512
1.16179 0.5 -0.401463 0.00402453
1.16179 0.5 0.401463 0.00403308
0.574156 0.5 -1.0875 0.00379067
0.574156 0.5 1.0875 0.00379249
1.17463 0.5 0.364477 0.00404335
1.17463 0.5 -0.364477 0.00403558
1.20942 0.5 -0.225851 0.00406902
1.20942 0.5 0.225851 0.0040748
1.23036 0.5 -1.32995e-17 0.0040941
1.2294 0.5 0.0634819 0.00409406
1.04168 0.5 -0.656246 0.00393348
1.04168 0.5 0.656246 0.00394188
1.23036 0.5 -0.0634819 0.00409257
1.18772 0.5 0.32807 0.00405433
1.18772 0.5 -0.32807 0.00404689
0.288069 0.5 -1.2 0.00376524
0.288069 0.5 1.2 0.0037659
1.23036 0.5 -0.126964 0.00408995
1.23036 0.5 0.126964 0.00409381
0.075776 0.5 -1.2375 0.00375354
0.075776 0.5 1.2375 0.00375367
0.523432 0.5 -1.125 0.00378467
0.523432 0.5 1.125 0.00378628
1.0271 0.5 -0.69963 0.00392204
1.0271 0.5 0.69963 0.00393057
1.24274 0.5 0.0314313 0.00410349
1.24274 0.5 -0.0314313 0.00410254
1.20942 0.5 0.29038 0.00407155
1.20942 0.5 -0.29038 0.00406426
1.11376 0.5 -0.554494 0.00398016
1.11376 0.5 0.554494 0.0039904
1.23036 0.5 -0.190445 0.00408639
1.23036 0.5 0.190445 0.00409199
1.24274 0.5 -0.0942942 0.00410034
1.24274 0.5 0.0942942 0.00410339
1.13882 0.5 0.510442 0.0040095
1.13882 0.5 -0.510442 0.00399877
0.969689 0.5 -0.7875 0.00388982
0.969689 0.5 0.7875 0.00389754
1.00005 0.5 -0.749309 0.00390465
1.00005 0.5 0.749309 0.00391287
0.939201 0.5 -0.825 0.00387643
0.939201 0.5 0.825 0.00388351
0.90582 0.5 0.8625 0.00386982
0.90582 0.5 -0.8625 0.00386346
1.17463 0.5 -0.430746 0.00402852
1.17463 0.5 0.430746 0.00403845
1.10076 0.5 -0.594676 0.00396884
1.10076 0.5 0.594676 0.00397895
1.18772 0.5 -0.393684 0.00404053
1.18772 0.5 0.393684 0.00404981
1.24274 0.5 -0.157157 0.00409718
1.24274 0.5 0.157157 0.00410211
1.16179 0.5 -0.468373 0.00401699
1.16179 0.5 0.468373 0.00402767
0.467897 0.5 -1.1625 0.0037787
0.467897 0.5 1.1625 0.00378004
0.872064 0.5 -0.9 0.00385141
0.872064 0.5 0.9 0.00385712
1.25401 0.5 2.08167e-17 0.0041113
0.835106 0.5 0.9375 0.00384477
0.835106 0.5 -0.9375 0.00383978
1.25401 0.5 -0.0622994 0.00410966
1.25401 0.5 0.0622994 0.00411192
1.08112 0.5 -0.638498 0.00395368
1.08112 0.5 0.638498 0.00396358
1.23036 0.5 -0.253927 0.00408189
1.23036 0.5 0.253927 0.00408913
0.219992 0.5 1.2375 0.00376138
0.219992 0.5 -1.2375 0.00376092
1.25309 0.5 0.121964 0.00411109
1.05695 0.5 0.685452 0.003946
1.05695 0.5 -0.685452 0.00393642
0.797732 0.5 0.975 0.00383412
0.797732 0.5 -0.975 0.00382964
1.25401 0.5 -0.124599 0.0041069
1.20942 0.5 -0.354909 0.00405851
1.20942 0.5 0.354909 0.0040674
1.24274 0.5 -0.220019 0.00409305
1.24274 0.5 0.220019 0.00409971
0.756814 0.5 -1.0125 0.00381977
0.756813 0.5 1.0125 0.00382368
1.25401 0.5 -0.186898 0.00410316
1.25401 0.5 0.186898 0.00410925
0.411736 0.5 -1.2 0.00377383
0.411736 0.5 1.2 0.00377502
0 0.5 -1.26882 0.00375
0 0.5 1.26882 0.00375
0.0124865 0.5 1.26882 0.00375061
0.0124865 0.5 -1.26882 0.00375059
0.715434 0.5 -1.05 0.00381128
0.715434 0.5 1.05 0.00381473
1.23036 0.5 -0.31741 0.00407643
1.23036 0.5 0.31741 0.00408534
1.04168 0.5 -0.729162 0.00392462
1.04168 0.5 0.729162 0.00393427
1.18772 0.5 -0.459298 0.00403283
1.18772 0.5 0.459298 0.00404434
1.24274 0.5 -0.282882 0.00408798
1.24274 0.5 0.282882 0.00409632
0 0.5 -1.275 0.00375
0 0.5 1.275 0.00375
1.27472 0.5 -0.0306319 0.0041281
1.27472 0.5 0.0306319 0.00412918
1.17463 0.5 0.497015 0.00403249
1.17463 0.5 -0.497015 0.00402037
1.11376 0.5 -0.623806 0.00397164
1.11376 0.5 0.623806 0.00398285
1.13882 0.5 -0.578501 0.00399047
1.13882 0.5 0.578501 0.0040023
0.67013 0.5 -1.0875 0.00380299
0.67013 0.5 1.0875 0.00380593
1.27472 0.5 -0.0918959 0.0041257
1.27472 0.5 0.0918959 0.00412598
1.25401 0.5 -0.249197 0.00409844
1.25401 0.5 0.249197 0.00410633
1.16179 0.5 -0.535284 0.00400872
1.16179 0.5 0.535284 0.00402108
1.20942 0.5 -0.419438 0.00405123
1.20942 0.5 0.419438 0.00406236
0 0.5 -1.28118 0.00375
0 0.5 1.28118 0.00375
0.0124865 0.5 1.28118 0.00375059
0.0124865 0.5 -1.28118 0.00375057
1.27472 0.5 0.15316 0.00412789