# kMean  POINT_DATA 91129
# x  y  z  kMean
0 0 0 0.00564646
0 0.00368111 0 0.00375
0 0.00749587 0 0.00375
0 0.0114491 0 0.00375
0 0.0155459 0 0.00375
0 0.0197915 0 0.00375
0 0.0241911 0 0.00375
0 0.0287506 0 0.00375
0 0.0334755 0 0.00375
0 0.038372 0 0.00375
0 0.0434463 0 0.00375
0 0.0487048 0 0.00375
0 0.0541543 0 0.00375
0 0.0598016 0 0.00375
0 0.0656539 0 0.00375
0 0.0717187 0 0.00375
0.075776 0.00184055 0 0.00991707
0.075776 0.00558849 0 0.00344502
0.075776 0.00947248 -3.46945e-18 0.0030643
0.075776 0.0134975 -3.46945e-18 0.00343283
0.075776 0.0176687 3.46945e-18 0.00359204
0 0.0780037 0 0.00375
0.075776 0.0219913 3.46945e-18 0.00365334
0.075776 0.0264709 3.46945e-18 0.00368449
0.075776 0.031113 -3.46945e-18 0.00370242
0.075776 0.0359237 -3.46945e-18 0.00371379
0 0.0845169 0 0.00375
0.075776 0.0409092 0 0.00372152
0.075776 0.0460755 -3.46945e-18 0.00372706
0 0.0912666 0 0.00375
0.075776 0.0514296 -3.46945e-18 0.00373119
0.075776 0.0569779 0 0.00373434
0 0.0982613 0 0.00375
0.075776 0.0627278 0 0.00373687
0.075776 0.0686863 0 0.00373902
0 0.10551 0 0.00375
0.075776 0.0748612 3.46945e-18 0.00374087
0.075776 0.0812603 -3.46945e-18 0.00374244
0 0.113022 0 0.00375
0.075776 0.0878918 3.46945e-18 0.00374376
0 0.120806 0 0.00375
0.075776 0.0947639 3.46945e-18 0.00374488
0.075776 0.101886 -3.46945e-18 0.00374581
0 0.128874 0 0.00375
0.075776 0.109266 3.46945e-18 0.00374658
0 0.137234 0 0.00375
0.075776 0.116914 3.46945e-18 0.00374723
0 0.145897 0 0.00375
0.075776 0.12484 0 0.00374777
0.151552 0 0 0.00620543
0.151552 0.00368111 0 0.00436071
0.151552 0.00749587 0 0.00260133
0.151552 0.0114491 0 0.00293295
0.151552 0.0155459 0 0.00330024
0.151552 0.0197915 0 0.00347827
0.075776 0.133054 0 0.00374823
0.151552 0.0241911 0 0.0035673
0.151552 0.0287506 0 0.00361942
0 0.154876 0 0.00375
0.151552 0.0334755 0 0.00365263
0.151552 0.038372 0 0.00367503
0.151552 0.0434463 0 0.00369084
0.151552 0.0487048 0 0.00370241
0.075776 0.141566 0 0.00374863
0.151552 0.0541543 0 0.00371117
0.151552 0.0598016 0 0.00371798
0 0.16418 0 0.00375
0.151552 0.0656539 0 0.00372343
0.151552 0.0717187 0 0.00372787
0.075776 0.150387 0 0.003749
0.151552 0.0780037 0 0.00373154
0.151552 0.0845169 0 0.00373459
0 0.173822 0 0.00375
0.075776 0.159528 0 0.00374934
0.151552 0.0912666 0 0.00373713
0.151552 0.0982613 0 0.00373926
0 0.183814 0 0.00375
0.151552 0.10551 0 0.00374106
0.075776 0.169001 3.46945e-18 0.00374967
0.151552 0.113022 0 0.0037426
0.151552 0.120806 0 0.00374394
0 0.194169 0 0.00375
0.075776 0.178818 3.46945e-18 0.00375
0.151552 0.128874 0 0.00374509
0.075776 0.188992 3.46945e-18 0.00375032
0.151552 0.137234 0 0.00374607
0 0.2049 0 0.00375
0.151552 0.145897 0 0.00374693
0.075776 0.199535 0 0.00375064
0 0.21602 0 0.00375
0.151552 0.154876 0 0.00374767
0.219992 0.00184055 0 0.00277944
0.219992 0.00558849 0 0.00165821
0.219992 0.00947248 -3.46945e-18 0.00233832
0.219992 0.0134975 3.46945e-18 0.00294492
0.219992 0.0176687 0 0.00326383
0.219992 0.0219913 0 0.00342607
0.219993 0.0264709 -3.46945e-18 0.00352092
0.219992 0.031113 -3.46945e-18 0.00358124
0.219992 0.0359238 3.46945e-18 0.00362162
0.151552 0.16418 0 0.00374833
0.075776 0.21046 0 0.00375095
0.219992 0.0409092 3.46945e-18 0.00364976
0.219992 0.0460755 0 0.00367013
0.219993 0.0514296 -3.46945e-18 0.00368537
0.219992 0.0569779 0 0.0036971
0 0.227544 0 0.00375
0.219992 0.0627277 3.46945e-18 0.00370633
0.219992 0.0686863 0 0.00371372
0.151552 0.173822 0 0.00374892
0.219992 0.0748612 3.46945e-18 0.00371974
0.075776 0.221782 0 0.00375124
0.219992 0.0812603 3.46945e-18 0.00372469
0.219992 0.0878917 -3.46945e-18 0.00372878
0.151552 0.183814 0 0.00374947
7.47806e-17 0.239487 0 0.00375
0.219992 0.0947639 3.46945e-18 0.0037322
0.219993 0.101886 3.46945e-18 0.00373508
0.075776 0.233516 0 0.00375151
0.219993 0.109266 0 0.00373755
0.151552 0.194169 0 0.00374997
0.219993 0.116914 0 0.00373971
0 0.251863 0 0.00375
0.219993 0.12484 0 0.00374159
0.151552 0.2049 0 0.00375045
0.075776 0.245675 0 0.00375171
0.219992 0.133054 3.46945e-18 0.00374321
0.219992 0.141565 0 0.00374459
0.151552 0.21602 0 0.00375089
0 0.264688 0 0.00375
0.219992 0.150387 3.46945e-18 0.00374577
0.075776 0.258275 3.46945e-18 0.00375184
0.219992 0.159528 -3.46945e-18 0.00374679
0.151552 0.227544 0 0.0037513
0.219992 0.169001 3.46945e-18 0.00374768
0 0.27798 0 0.00375
0.075776 0.271334 3.46945e-18 0.00375191
0.151552 0.239487 3.70071e-18 0.00375166
0.219992 0.178818 3.46945e-18 0.00374847
0.288433 0 0 0.00184666
0.288433 0.00368111 0 0.00157803
0.288433 0.00749587 0 0.00178543
0.288433 0.0114491 0 0.00257688
0.288433 0.0155459 3.70071e-18 0.00305381
0.288433 0.0197915 0 0.00328997
0.288433 0.0241911 3.70071e-18 0.00341144
0.288433 0.0287506 0 0.00349206
0.219992 0.188991 0 0.00374918
0.288433 0.0334755 0 0.00355045
0.288433 0.038372 0 0.00359316
0.288433 0.0434463 0 0.00362485
7.47806e-17 0.291753 0 0.00375
0.288433 0.0487048 0 0.00364883
0.288433 0.0541543 0 0.00366735
0.151552 0.251863 0 0.00375196
0.288433 0.0598016 3.70071e-18 0.00368192
0.075776 0.284866 0 0.00375191
0.288433 0.0656539 3.70071e-18 0.00369356
0.219992 0.199534 0 0.00374984
0.288433 0.0717187 0 0.00370297
0.288433 0.0780037 0 0.00371066
0.288433 0.0845169 0 0.00371698
0.288433 0.0912666 0 0.00372229
0.219992 0.21046 -3.46945e-18 0.00375043
0.288433 0.0982613 0 0.00372692
0.151552 0.264688 3.70071e-18 0.00375221
0 0.306027 0 0.00375
0.288433 0.10551 0 0.00373104
0.075776 0.29889 3.46945e-18 0.00375187
0.288433 0.113022 0 0.00373466
0.219993 0.221782 0 0.00375098
0.288433 0.120806 0 0.00373782
0.288433 0.128874 0 0.00374058
0.151552 0.27798 0 0.0037524
0.288433 0.137234 0 0.00374296
0 0.320819 0 0.00375
0.219992 0.233515 -3.46945e-18 0.00375148
0.075776 0.313423 -3.46945e-18 0.0037518
0.288433 0.145897 0 0.00374501
0.288433 0.154876 0 0.00374677
0.151552 0.291753 0 0.00375255
0.219993 0.245675 0 0.00375193
0.288433 0.16418 0 0.00374828
0 0.336148 0 0.00375
0.288433 0.173822 0 0.00374956
0.075776 0.328484 -3.46945e-18 0.0037517
0.219993 0.258275 -3.46945e-18 0.00375234
0.151552 0.306027 0 0.00375265
0.288433 0.183814 0 0.00375065
0.288433 0.194169 0 0.00375159
0.219992 0.271334 3.46945e-18 0.0037527
0.350249 0.00184056 -3.46945e-18 0.000982481
0.350249 0.00558849 0 0.000986197
0.350249 0.00947248 3.46945e-18 0.0021903
0.350249 0.0134975 0 0.00284351
0.350249 0.0176687 0 0.00317043
0.350249 0.0219913 0 0.00330765
0.350249 0.0264708 3.46945e-18 0.00340023
0.350249 0.031113 0 0.00347453
0 0.352034 0 0.00375
0.350249 0.0359238 0 0.00353191
0.075776 0.344091 0 0.00375161
0.350249 0.0409091 0 0.00357559
0.350249 0.0460756 3.46945e-18 0.00360905
0.288433 0.2049 0 0.0037524
0.350249 0.0514296 0 0.00363501
0.151552 0.320819 0 0.00375273
0.350249 0.0569779 0 0.00365544
0.350249 0.0627277 3.46945e-18 0.00367173
0.350249 0.0686863 3.46945e-18 0.00368488
0.350249 0.0748612 3.46945e-18 0.00369557
0.350249 0.0812603 0 0.00370433
0.219992 0.284867 0 0.00375302
0.288433 0.21602 0 0.00375311
0.350249 0.0878917 0 0.00371155
0.350249 0.094764 0 0.00371783
0.350249 0.101886 0 0.00372357
0.350249 0.109266 0 0.00372872
0.288433 0.227544 0 0.00375373
0.075776 0.360265 3.46945e-18 0.0037516
0 0.368496 0 0.00375
0.151552 0.336148 0 0.00375279
0.350249 0.116914 3.46945e-18 0.00373324
0.219992 0.29889 0 0.00375329
0.370854 0.0241911 1.54074e-33 0.00336318
0.350249 0.12484 0 0.00373717
0.350249 0.133054 0 0.0037406
0.288433 0.239487 -9.25154e-19 0.00375429
0.350249 0.141566 3.46945e-18 0.00374358
0.350249 0.150387 3.46945e-18 0.00374614
0.288433 0.251863 0 0.00375481
0.219992 0.313423 0 0.00375352
0.151552 0.352034 0 0.00375289
0.075776 0.377027 0 0.00375166
0.350249 0.159528 0 0.00374833
0 0.385557 0 0.00375
0.350249 0.169001 0 0.00375017
0.288433 0.264688 0 0.0037553
0.350249 0.178818 0 0.0037517
0.219992 0.328484 0 0.00375374
0.350249 0.188992 0 0.00375298
0.151552 0.368496 0 0.00375304
0.288433 0.27798 3.70071e-18 0.00375575
0.075776 0.394397 0 0.00375176
0.350249 0.199535 0 0.00375405
7.47806e-17 0.403236 0 0.00375
0.219992 0.344091 0 0.00375395
0.350249 0.21046 -3.46945e-18 0.00375495
0.288433 0.291753 0 0.00375618
0.412065 9.08189e-19 3.08149e-33 0.000803242
0.412065 0.00368111 -2.31298e-18 0.00086863
0.412065 0.00749587 -2.31298e-18 0.00160733
0.412065 0.0114491 -2.31298e-18 0.00260431
0.412065 0.0155459 -2.31298e-18 0.00306202
0.412065 0.0197915 0 0.00325088
0.412065 0.0241911 -3.08149e-33 0.00333905
0.412065 0.0264709 0 0.0033721
0.412065 0.0287506 -2.31298e-18 0.00340514
0.412065 0.0334755 -2.31298e-18 0.00346683
0.412065 0.038372 -2.31298e-18 0.00351952
0.151552 0.385557 0 0.00375324
0.412065 0.0434463 0 0.00356225
0.350249 0.221782 0 0.00375572
0.412065 0.0487048 0 0.00359638
0.412065 0.0541543 -3.08149e-33 0.00362364
0.412065 0.0569779 0 0.0036346
0.412065 0.0598016 -2.31298e-18 0.00364555
0.412065 0.0656539 -2.31298e-18 0.00366326
0.412065 0.0717187 -2.31298e-18 0.00367764
0.075776 0.412396 -3.46945e-18 0.00375183
0.412065 0.0780037 -2.31298e-18 0.00368942
0.288433 0.306027 0 0.00375659
0.412065 0.0845169 -2.31298e-18 0.00369931
0.350249 0.233516 3.46945e-18 0.00375639
0 0.421557 0 0.00375
0.412065 0.0912666 -2.31298e-18 0.00370796
0.219992 0.360265 3.46945e-18 0.0037542
0.412065 0.0982613 0 0.00371576
0.412065 0.10551 0 0.00372282
0.412065 0.113022 -2.31298e-18 0.00372913
0.350249 0.245675 0 0.003757
0.412065 0.120806 0 0.00373471
0.151552 0.403236 0 0.00375346
0.288433 0.320819 0 0.00375698
0.412065 0.128874 -2.31298e-18 0.0037396
0.412065 0.137234 0 0.00374386
0.350249 0.258275 -3.46945e-18 0.00375758
0.219992 0.377026 0 0.00375449
0.412065 0.145897 -2.31298e-18 0.00374754
0.075776 0.431051 0 0.00375187
0.412065 0.154876 -2.31298e-18 0.00375069
0 0.440544 0 0.00375
0.288433 0.336148 0 0.00375736
0.350249 0.271334 0 0.00375815
0.412065 0.16418 -2.31298e-18 0.00375336
0.412065 0.173822 -2.31298e-18 0.00375561
0.151552 0.421557 0 0.00375366
0.412065 0.183814 -2.31298e-18 0.00375749
0.350249 0.284867 3.46945e-18 0.00375872
0.219992 0.394397 0 0.00375482
0.288433 0.352034 3.70071e-18 0.00375774
0.412065 0.194169 0 0.00375905
0.075776 0.450382 0 0.0037519
0.412065 0.2049 -2.31298e-18 0.00376034
0 0.46022 0 0.00375
0.350249 0.29889 3.46945e-18 0.00375927
0.412065 0.21602 0 0.00376142
0.151552 0.440544 0 0.00375385
0.219993 0.412396 3.46945e-18 0.00375517
0.467897 0.00184056 -3.46945e-18 0.000636509
0.467897 0.00558849 0 0.000885472
0.288433 0.368496 0 0.00375815
0.467897 0.00947248 0 0.00236472
0.467897 0.0134975 0 0.00300655
0.467897 0.0176687 3.46945e-18 0.00321992
0.467897 0.0219913 -3.46945e-18 0.00330388
0.467897 0.0264709 3.46945e-18 0.00334651
0.467897 0.0311131 3.46945e-18 0.00340379
0.467897 0.0359238 -3.46945e-18 0.00346218
0.467897 0.038372 0 0.00349172
0.467897 0.0409092 3.46945e-18 0.00351318
0.350249 0.313423 0 0.00375981
0.467897 0.0460755 0 0.00355536
0.467897 0.0514296 3.46945e-18 0.00358966
0.412065 0.227544 -2.31298e-18 0.00376232
0.467897 0.0569779 0 0.00361747
0.467897 0.0627277 -3.46945e-18 0.00364006
0.467897 0.0686863 3.46945e-18 0.00365845
0.467897 0.0748612 0 0.00367341
0.467897 0.0812603 0 0.00368584
0.467897 0.0878918 3.46945e-18 0.00369674
0.075776 0.470415 3.46945e-18 0.00375191
0.412065 0.239487 -2.31298e-18 0.00376311
0.467897 0.0947639 -3.46945e-18 0.00370665
0.467897 0.101886 3.46945e-18 0.00371566
0.350249 0.328483 0 0.00376035
0.467897 0.109266 0 0.00372379
0 0.48061 0 0.00375
0.288433 0.385557 0 0.00375858
0.467897 0.116914 0 0.00373105
0.412065 0.251863 -2.31298e-18 0.0037638
0.219992 0.431051 0 0.0037555
0.467897 0.12484 0 0.00373746
0.151552 0.46022 0 0.00375401
0.467897 0.133054 3.46945e-18 0.00374307
0.467897 0.141566 3.46945e-18 0.00374794
0.412065 0.264688 -2.31298e-18 0.00376445
0.350249 0.344091 -3.46945e-18 0.00376088
0.467897 0.150387 3.46945e-18 0.00375213
0.467897 0.154876 0 0.00375545
0.467897 0.159528 3.46945e-18 0.00375568
0.288433 0.403236 0 0.00375904
0.075776 0.491175 0 0.00375193
0.412065 0.27798 -2.31298e-18 0.00376506
0.467897 0.169001 0 0.00375868
0.467897 0.178818 3.46945e-18 0.00376122
0.219992 0.450382 0 0.00375582
6.73026e-17 0.501741 3.70071e-18 0.00375
0.350249 0.360265 0 0.00376141
0.151552 0.48061 0 0.00375417
0.467897 0.188991 0 0.00376333
0.412065 0.291753 0 0.00376566
0.467897 0.199535 0 0.00376506
0.288433 0.421557 0 0.0037595
0.467897 0.21046 0 0.00376649
0.412065 0.306027 0 0.00376624
0.350249 0.377027 0 0.00376194
0.467897 0.221782 3.46945e-18 0.00376767
0.075776 0.51269 0 0.00375196
0.219993 0.470415 3.46945e-18 0.0037561
0.467897 0.227544 0 0.00376993
0.412065 0.320819 -2.31298e-18 0.00376681
0.467897 0.233515 0 0.00376865
6.73026e-17 0.523639 3.70071e-18 0.00375
0.523729 0 0 0.000543919
0.523729 0.00368111 0 0.000699759
0.523729 0.00749587 -2.31298e-18 0.00167688
0.523729 0.0114491 0 0.00284011
0.523729 0.0155459 0 0.00324888
0.523729 0.0197915 -2.31298e-18 0.00333161
0.151552 0.501741 0 0.00375432
0.523729 0.0241911 0 0.00335112
0.523729 0.0287506 0 0.00337185
0.523729 0.0334755 0 0.00341397
0.523729 0.038372 -3.08149e-33 0.00346391
0.523729 0.0434463 0 0.00351081
0.523729 0.0487048 0 0.00355128
0.523729 0.0541543 0 0.00358514
0.288433 0.440544 0 0.00375996
0.523729 0.0598016 0 0.00361314
0.350249 0.394397 -3.46945e-18 0.0037625
0.523729 0.0656539 0 0.00363619
0.467897 0.245675 0 0.00376949
0.523729 0.0717187 0 0.0036551
0.523729 0.0780037 0 0.00367087
0.523729 0.0845169 0 0.00368466
0.523729 0.0912666 0 0.00369715
0.412065 0.336148 0 0.00376738
0.523729 0.0982613 0 0.00370853
0.523729 0.10551 -2.31298e-18 0.00371884
0.467897 0.258275 -3.46945e-18 0.00377024
0.523729 0.113022 0 0.0037281
0.523729 0.120806 -3.08149e-33 0.00373634
0.219993 0.491176 0 0.00375638
0.523729 0.12484 0 0.00373998
0.523729 0.128874 -2.31298e-18 0.00374362
0.075776 0.534986 0 0.00375199
0.467897 0.271334 3.46945e-18 0.00377091
0.350249 0.412396 -3.46945e-18 0.00376308
0.523729 0.137234 0 0.00374998
0.412065 0.352034 -2.31298e-18 0.00376795
0.288433 0.46022 0 0.00376039
0.523729 0.145897 0 0.00375549
0.151552 0.523639 0 0.00375447
0.523729 0.154876 -3.08149e-33 0.00376021
0 0.546332 0 0.00375
0.523729 0.159528 0 0.00376222
0.467897 0.284867 -3.46945e-18 0.00377155
0.523729 0.16418 -2.31298e-18 0.00376422
0.523729 0.173822 0 0.00376761
0.412065 0.368496 0 0.00376852
0.523729 0.183814 0 0.00377044
0.467897 0.29889 0 0.00377217
0.350249 0.431051 -3.46945e-18 0.00376366
0.219992 0.51269 0 0.00375664
0.523729 0.194169 0 0.00377278
0.288433 0.48061 0 0.0037608
0.523729 0.2049 0 0.00377469
0.467897 0.313423 3.46945e-18 0.00377277
0.075776 0.558091 0 0.00375203
0.412065 0.385557 0 0.00376912
0.523729 0.21602 -3.08149e-33 0.00377626
0.151552 0.546332 0 0.00375462
0 0.569849 0 0.00375
0.350249 0.450382 3.46945e-18 0.00376423
0.523729 0.227544 -3.08149e-33 0.00377754
0.467897 0.328483 0 0.00377337
0.523729 0.231525 1.54074e-33 0.0037779
0.574156 0.00184056 0 0.000457406
0.574156 0.00558849 0 0.000827688
0.574157 0.00947248 0 0.00262291
0.574156 0.0134975 -3.46945e-18 0.003346
0.574156 0.0176687 -3.46945e-18 0.00340527
0.574156 0.0219913 0 0.00338823
0.574156 0.0264708 -3.46945e-18 0.00336244
0.574156 0.031113 0 0.0033751
0.574156 0.0359238 -3.46945e-18 0.0034173
0.574157 0.0409092 0 0.00346611
0.523729 0.239487 3.70071e-18 0.0037786
0.574156 0.0460755 -3.46945e-18 0.00351166
0.574156 0.0514295 0 0.00355122
0.412065 0.403236 0 0.00376973
0.574157 0.0569779 0 0.00358462
0.574156 0.0627277 0 0.00361247
0.574156 0.0686863 0 0.00363549
0.219992 0.534986 0 0.0037569
0.288433 0.501741 0 0.00376119
0.574156 0.0748612 3.46945e-18 0.00365447
0.574156 0.0812603 0 0.00367092
0.467897 0.344091 0 0.00377398
0.574156 0.0878917 3.46945e-18 0.003686
0.523729 0.251863 0 0.0037795
0.574157 0.0947639 0 0.00369981
0.574156 0.101886 0 0.00371235
0.574156 0.109266 0 0.00372367
0.574156 0.116914 0 0.0037338
0.412065 0.416977 -6.16298e-33 0.0037702
0.350249 0.470415 0 0.00376477
0.523729 0.264688 0 0.00378027
0.075776 0.582034 0 0.00375208
0.574156 0.12484 0 0.0037428
0.574156 0.133054 3.46945e-18 0.00375071
0.412065 0.421557 -2.31298e-18 0.00377036
0.151552 0.569849 0 0.00375478
0.467897 0.360265 -3.46945e-18 0.00377459
0.574157 0.141566 -3.46945e-18 0.00375761
0.523729 0.27798 0 0.00378095
0.574156 0.150386 3.46945e-18 0.00376356
0 0.594219 0 0.00375
0.574156 0.159528 -3.46945e-18 0.00376865
0.574156 0.16418 0 0.00377226
0.288433 0.523639 1.2326e-32 0.00376156
0.574157 0.169001 0 0.00377296
0.523729 0.291753 0 0.00378158
0.219993 0.558091 3.46945e-18 0.00375716
0.467897 0.377026 0 0.00377521
0.574156 0.178818 3.46945e-18 0.00377657
0.412065 0.440544 -2.31298e-18 0.00377099
0.350249 0.491175 0 0.00376529
0.574156 0.188992 3.46945e-18 0.00377957
0.523729 0.306027 -3.08149e-33 0.00378218
0.574157 0.199535 0 0.00378203
0.574157 0.21046 0 0.00378403
0.075776 0.606847 0 0.00375214
0.467897 0.394397 0 0.00377586
0.151552 0.594219 0 0.00375494
0.523729 0.320819 0 0.00378277
0.574157 0.221782 -3.46945e-18 0.00378566
0.412065 0.46022 3.08149e-33 0.00377161
0.288433 0.546332 0 0.00376192
0 0.619475 0 0.00375
0.574156 0.233515 3.46945e-18 0.00378698
0.350249 0.51269 3.46945e-18 0.00376577
0.219992 0.582034 3.46945e-18 0.00375742
0.523729 0.336148 0 0.00378335
0.467897 0.412396 0 0.00377653
0.574156 0.245675 0 0.00378806
0.624584 0 0 0.000392509
0.624584 0.00368111 0 0.000601666
0.624584 0.00749587 0 0.00178423
0.624584 0.0114491 0 0.00316959
0.624584 0.0155459 0 0.0035825
0.624584 0.0197915 0 0.00353103
0.624584 0.0241911 -2.31298e-18 0.00344069
0.624584 0.0287506 0 0.00339334
0.624584 0.0334755 0 0.00339645
0.624584 0.038372 0 0.00343009
0.624584 0.0434463 -2.31298e-18 0.00347329
0.624584 0.0487048 0 0.00351569
0.624584 0.0541543 0 0.00355359
0.624584 0.0598016 0 0.00358615
0.624584 0.0656539 0 0.00361358
0.624584 0.0717187 0 0.00363655
0.624584 0.0780037 0 0.00365634
0.574157 0.258276 3.46945e-18 0.00378895
0.624584 0.0845169 0 0.0036742
0.523729 0.352034 0 0.00378393
0.624584 0.0912666 0 0.00369065
0.624584 0.0982613 0 0.0037057
0.412065 0.48061 3.08149e-33 0.0037722
0.624584 0.10551 0 0.00371937
0.624584 0.113022 -2.31298e-18 0.00373168
0.574156 0.271334 0 0.00378971
0.624584 0.120806 0 0.00374269
0.467897 0.431051 0 0.00377722
0.075776 0.632561 -3.46945e-18 0.0037522
0.624584 0.128874 0 0.00375243
0.151552 0.619475 0 0.0037551
0.288433 0.569849 0 0.00376227
0.350249 0.534985 0 0.00376624
0.624584 0.137234 -2.31298e-18 0.00376099
0.523729 0.368496 0 0.00378453
0.574156 0.284866 -3.46945e-18 0.00379037
0.624584 0.145897 0 0.00376843
0.467897 0.440544 0 0.00377907
0.624584 0.154876 0 0.00377483
0.219992 0.606847 -3.46945e-18 0.00375768
0 0.645647 0 0.00375
0.624584 0.16418 -3.08149e-33 0.00378029
0.574156 0.29889 -3.46945e-18 0.00379098
0.624584 0.173822 0 0.00378489
0.412065 0.501741 1.54074e-33 0.00377276
0.467897 0.450382 -3.46945e-18 0.0037779
0.523729 0.385557 0 0.00378516
0.624584 0.183814 0 0.00378873
0.624584 0.194169 0 0.00379189
0.574156 0.313423 0 0.00379155
0.624584 0.2049 0 0.00379448
0.350249 0.558091 3.46945e-18 0.00376669
0.288433 0.594219 0 0.00376261
0.624584 0.21602 0 0.00379657
0.523729 0.403236 0 0.0037858
0.574156 0.328483 -3.46945e-18 0.00379211
0.151552 0.645647 0 0.00375526
0.467897 0.470415 3.46945e-18 0.00377857
0.075776 0.659208 0 0.00375227
0.624584 0.227544 0 0.00379825
0.412065 0.523639 0 0.00377329
0.523729 0.41545 3.08149e-33 0.00378625
0.624584 0.239487 3.70071e-18 0.0037996
0.574156 0.344091 0 0.00379267
0.219992 0.632561 0 0.00375793
0.67013 0.00184055 0 0.000331584
0.67013 0.00558849 0 0.000795
0.67013 0.00947248 0 0.00288419
0.67013 0.0134975 0 0.00380266
0.67013 0.0176687 -3.46945e-18 0.0037508
0.67013 0.0219913 0 0.0035634
0.67013 0.0264708 3.46945e-18 0.00344069
0.67013 0.0311131 0 0.00339212
0.67013 0.0359237 0 0.00340123
0.67013 0.0409092 -3.46945e-18 0.00343714
0.67013 0.0460755 0 0.00348018
0.67013 0.0514296 3.46945e-18 0.00352164
0.523729 0.421557 -2.31298e-18 0.00378647
0.67013 0.056978 0 0.00355862
0 0.67277 0 0.00375
0.67013 0.0627277 0 0.00359042
0.624584 0.251863 0 0.00380068
0.67013 0.0686863 0 0.0036172
0.67013 0.0748612 3.46945e-18 0.00364007
0.67013 0.0812603 0 0.00366066
0.67013 0.0878917 0 0.00367975
0.67013 0.0947639 3.46945e-18 0.00369732
0.574156 0.360265 0 0.00379325
0.67013 0.101886 0 0.00371337
0.523729 0.431051 0 0.00378681
0.624584 0.264688 0 0.00380156
0.467897 0.491175 0 0.0037792
0.67013 0.109266 3.46945e-18 0.00372792
0.350249 0.582034 0 0.00376711
0.67013 0.116914 0 0.00374098
0.67013 0.12484 0 0.00375262
0.67013 0.133054 0 0.0037629
0.288433 0.619475 0 0.00376294
0.624584 0.27798 -3.08149e-33 0.0038023
0.412065 0.546332 1.54074e-33 0.00377379
0.523729 0.440544 -3.08149e-33 0.00378715
0.67013 0.141566 3.46945e-18 0.00377189
0.685312 0.0241911 -7.70372e-34 0.00355779
0.685312 0.0434463 -7.70372e-34 0.00345957
0.67013 0.150387 0 0.00377968
0.574156 0.377026 -3.46945e-18 0.00379384
0.67013 0.159528 0 0.00378636
0.624584 0.291753 0 0.00380293
0.151552 0.67277 0 0.00375542
0.075776 0.686823 0 0.00375233
0.67013 0.169001 0 0.00379202
0.67013 0.178818 0 0.00379677
0.467897 0.51269 0 0.0037798
0.685312 0.113022 -7.70372e-34 0.00373681
0.219992 0.659208 0 0.00375818
0.624584 0.306027 0 0.00380349
0.67013 0.188991 0 0.0038007
0.574156 0.394397 3.46945e-18 0.00379447
0.523729 0.46022 0 0.00378783
0.685312 0.137234 -7.70372e-34 0.00377114
0.67013 0.199535 -3.46945e-18 0.00380393
0.350249 0.606847 0 0.00376752
0 0.700877 0 0.00375
0.624584 0.320819 0 0.00380401
0.67013 0.21046 0 0.00380654
0.412065 0.569849 -2.31298e-18 0.00377426
0.67013 0.221782 -3.46945e-18 0.00380863
0.574157 0.412396 0 0.00379511
0.288433 0.645647 0 0.00376326
0.624584 0.336148 -3.08149e-33 0.00380452
0.67013 0.233515 3.46945e-18 0.00381029
0.467897 0.534986 0 0.00378036
0.523729 0.48061 0 0.00378848
0.624584 0.344091 0 0.00380478
0.67013 0.245675 0 0.0038116
0.715676 4.54095e-19 0 0.000282146
0.715676 0.00368111 0 0.000533736
0.715676 0.00749587 0 0.00189942
0.715676 0.0114491 0 0.00353899
0.715676 0.0155459 0 0.00403003
0.715676 0.0197915 0 0.00385288
0.715676 0.0241911 0 0.00361635
0.715676 0.0287506 0 0.00347541
0.715676 0.0334755 0 0.00341949
0.715676 0.038372 0 0.00342224
0.624584 0.352034 -2.31298e-18 0.00380504
0.715676 0.0434463 0 0.0034527
0.151552 0.700877 0 0.00375557
0.715676 0.0487048 0 0.00349172
0.715676 0.0541543 0 0.00353055
0.574156 0.43105 0 0.00379579
0.715676 0.0598016 0 0.00356581
0.67013 0.258275 0 0.00381264
0.715676 0.0656539 0 0.00359644
0.715676 0.0717187 0 0.00362284
0.075776 0.715441 0 0.0037524
0.715676 0.0780037 0 0.00364641
0.715676 0.0845169 0 0.00366819
0.219992 0.686824 0 0.00375842
0.715676 0.0912666 0 0.00368841
0.715676 0.0982613 0 0.00370701
0.67013 0.271334 -3.46945e-18 0.00381347
0.350249 0.632561 -3.46945e-18 0.00376791
0.412065 0.594219 3.08149e-33 0.00377471
0.715676 0.10551 0 0.003724
0.715676 0.113022 0 0.00373937
0.624584 0.368496 0 0.00380557
0.523729 0.501741 0 0.0037891
0.715676 0.120806 0 0.00375316
0.715676 0.128874 0 0.00376542
0.67013 0.284867 0 0.00381415
0.467897 0.558091 3.46945e-18 0.00378089
0.715676 0.137234 0 0.00377621
0.574156 0.450382 0 0.00379647
0 0.730005 0 0.00375
0.715676 0.145897 0 0.00378563
0.288433 0.67277 0 0.00376356
0.715676 0.154876 0 0.00379376
0.67013 0.29889 0 0.00381472
0.624584 0.385557 0 0.00380612
0.715676 0.16418 -9.25187e-19 0.0038007
0.715676 0.173822 0 0.00380656
0.715676 0.183814 0 0.00381146
0.67013 0.313423 0 0.00381523
0.523729 0.523639 0 0.00378967
0.715676 0.194169 0 0.00381549
0.574156 0.470415 3.46945e-18 0.00379714
0.624584 0.403236 0 0.0038067
0.743101 0.0241911 -7.70372e-34 0.00371022
0.412065 0.619475 3.08149e-33 0.00377513
0.715676 0.2049 0 0.00381876
0.151552 0.730005 0 0.00375573
0.67013 0.328484 3.46945e-18 0.0038157
0.350249 0.659208 0 0.00376828
0.467897 0.582034 0 0.00378137
0.715676 0.21602 0 0.00382139
0.219992 0.715441 0 0.00375866
0.075776 0.745097 -3.46945e-18 0.00375247
0.715676 0.227544 0 0.00382348
0.67013 0.344091 0 0.00381616
0.624584 0.421557 0 0.00380731
0.743101 0.128874 -7.70372e-34 0.00377091
0.715676 0.239487 3.70071e-18 0.00382512
0.574156 0.491175 0 0.00379778
0.756814 0.00184055 0 0.0002355
0.523729 0.546332 0 0.00379021
0.756813 0.00558849 0 0.000776214
0.756813 0.00947248 0 0.0031356
0.756814 0.0134975 -3.46945e-18 0.0043115
0.756814 0.0155459 0 0.00428674
0.756814 0.0176687 0 0.00422658
0.756814 0.0219913 0 0.00384865
0.756814 0.0264709 0 0.00359975
0.756814 0.031113 -3.46945e-18 0.00346241
0.756813 0.0359238 -3.46945e-18 0.00341964
0.288433 0.700877 0 0.00376385
0.756814 0.0409092 -3.46945e-18 0.00343061
0.756813 0.0460755 3.46945e-18 0.00346355
0.756813 0.0514296 0 0.00350254
0.715676 0.251863 0 0.00382638
0.756813 0.0569779 0 0.00354049
0.756814 0.0627277 -3.46945e-18 0.00357468
0.756814 0.0686863 -3.46945e-18 0.00360427
0 0.76019 0 0.00375
0.756814 0.0748612 0 0.00363047
0.67013 0.360265 3.46945e-18 0.00381662
0.756814 0.0812603 -3.46945e-18 0.00365488
0.756814 0.0878917 -3.46945e-18 0.00367771
0.756814 0.0947639 -3.46945e-18 0.00369886
0.715676 0.264688 0 0.00382736
0.756813 0.101886 0 0.00371831
0.624584 0.440544 0 0.00380794
0.756813 0.109266 3.46945e-18 0.00373602
0.756813 0.116914 3.46945e-18 0.00375201
0.412065 0.645647 0 0.00377552
0.467897 0.606847 0 0.00378183
0.756814 0.120806 0 0.00376015
0.756813 0.12484 0 0.00376631
0.715676 0.27798 0 0.00382813
0.756814 0.133054 -3.46945e-18 0.00377898
0.67013 0.377026 -3.46945e-18 0.00381711
0.756814 0.137234 0 0.00378558
0.574156 0.51269 0 0.00379838
0.756813 0.141566 3.46945e-18 0.00379009
0.685312 0.352034 -7.70372e-34 0.00382197
0.743101 0.2049 -7.70372e-34 0.00382807
0.350249 0.686824 0 0.00376863
0.756814 0.150387 0 0.00379975
0.756814 0.154876 0 0.00380499
0.715676 0.291753 0 0.00382873
0.756814 0.159528 -3.46945e-18 0.00380805
0.523729 0.569849 0 0.0037907
0.72743 0.264688 0 0.00383158
0.756814 0.16418 0 0.00381269
0.151552 0.76019 0 0.00375588
0.756813 0.169001 3.46945e-18 0.00381509
0.624584 0.46022 0 0.00380857
0.219993 0.745097 0 0.00375889
0.67013 0.394396 0 0.00381763
0.756813 0.178818 -3.46945e-18 0.00382101
0.715676 0.306027 0 0.00382922
0.075776 0.775831 0 0.00375255
0.756813 0.188991 0 0.00382591
0.756814 0.199535 0 0.00382992
0.715676 0.320819 0 0.00382965
0.574156 0.534985 0 0.00379893
0.288433 0.730005 0 0.00376413
0.756813 0.21046 0 0.00383315
0.467897 0.632561 0 0.00378225
0.67013 0.412396 -3.46945e-18 0.00381818
0.624584 0.48061 -3.08149e-33 0.00380918
0.756814 0.221782 0 0.00383572
0.412065 0.67277 3.08149e-33 0.00377588
0.715676 0.336148 0 0.00383005
0 0.791472 0 0.00375
0.756813 0.233516 3.46945e-18 0.00383772
0.523729 0.594219 0 0.00379115
0.624584 0.487654 1.54074e-33 0.00380937
0.756814 0.245675 3.46945e-18 0.00383926
0.350249 0.715441 3.46945e-18 0.00376895
0.67013 0.43105 0 0.00381875
0.715676 0.352034 -9.25187e-19 0.00383044
0.797951 9.08189e-19 -3.08149e-33 0.000198442
0.797951 0.00368111 2.31298e-18 0.000484137
0.797951 0.00749587 2.31298e-18 0.00201037
0.797951 0.0114491 2.31298e-18 0.00390971
0.797951 0.0141803 7.70372e-34 0.0043322
0.797951 0.0155459 0 0.00454344
0.797951 0.0169611 7.70372e-34 0.00445967
0.797951 0.0197915 2.31298e-18 0.00429211
0.797951 0.0219913 0 0.00409504
0.797951 0.0241911 3.08149e-33 0.00389798
0.797951 0.0264709 0 0.00376421
0.797951 0.0287506 -3.08149e-33 0.00363044
0.797951 0.0334755 2.31298e-18 0.00349035
0.797951 0.038372 2.31298e-18 0.00344522
0.797951 0.0434463 2.31298e-18 0.00345211
0.797951 0.0487048 0 0.00348123
0.756813 0.258275 -3.46945e-18 0.00384043
0.797951 0.0541543 2.31298e-18 0.00351714
0.797951 0.0598016 2.31298e-18 0.00355275
0.797951 0.0656539 2.31298e-18 0.00358519
0.574156 0.55809 0 0.00379943
0.624584 0.501741 0 0.00380976
0.797951 0.0717187 2.31298e-18 0.00361424
0.797951 0.0780037 -3.08149e-33 0.00364108
0.797951 0.0845169 2.31298e-18 0.00366638
0.797951 0.0912666 -3.08149e-33 0.00369008
0.797951 0.0982613 2.31298e-18 0.00371205
0.756813 0.271334 0 0.00384131
0.797951 0.10551 2.31298e-18 0.00373223
0.715676 0.368496 0 0.00383084
0.151552 0.791472 0 0.00375603
0.797951 0.113022 2.31298e-18 0.0037506
0.219992 0.775831 3.46945e-18 0.00375911
0.797951 0.118211 7.70372e-34 0.00376162
0.770526 0.239487 1.54074e-33 0.00384456
0.797951 0.120806 0 0.00376714
0.67013 0.450382 3.46945e-18 0.00381934
0.797951 0.128874 3.08149e-33 0.0037819
0.467897 0.659208 0 0.00378263
0.756813 0.284866 -3.46945e-18 0.00384197
0.743101 0.320819 -7.70372e-34 0.00383944
0.797951 0.137234 0 0.00379494
0.797951 0.141566 0 0.00380065
0.797951 0.145897 -9.25187e-19 0.00380635
0.523729 0.619475 0 0.00379155
0.075776 0.807681 0 0.00375262
0.797951 0.150387 0 0.00381129
0.797951 0.154876 0 0.00381622
0.715676 0.385557 0 0.00383126
0.412065 0.700877 3.08149e-33 0.0037762
0.288433 0.76019 0 0.00376438
0.756813 0.29889 0 0.00384248
0.797951 0.16418 0 0.00382467
0.624584 0.523639 0 0.00381029
0.797951 0.167394 7.70372e-34 0.00382705
0.797951 0.173822 2.31298e-18 0.00383181
0.574156 0.582034 0 0.00379989
0.67013 0.470415 0 0.00381993
0.797951 0.183814 2.31298e-18 0.00383778
0.756813 0.313423 -3.46945e-18 0.00384288
0.797951 0.194169 -9.25187e-19 0.00384269
0.715676 0.403236 0 0.00383172
0.151552 0.807681 0 0.0037561
0.797951 0.197746 -7.70372e-34 0.00384401
0.350249 0.745097 0 0.00376925
0.797951 0.2049 3.08149e-33 0.00384667
0 0.823889 0 0.00375
0.756813 0.328483 -3.46945e-18 0.00384323
0.797951 0.21046 0 0.00384826
0.797951 0.21602 -3.08149e-33 0.00384985
0.797951 0.223703 7.70372e-34 0.00385152
0.797951 0.227544 9.25187e-19 0.00385235
0.624584 0.546332 0 0.00381077
0.715676 0.421557 0 0.0038322
0.67013 0.491176 -3.46945e-18 0.00382049
0.797951 0.231525 7.70372e-34 0.00385299
0.467897 0.686824 -3.46945e-18 0.00378297
0.523729 0.645647 0 0.00379191
0.756813 0.344091 -3.46945e-18 0.00384355
0.822721 0.120806 7.70372e-34 0.00377274
0.797951 0.239487 -3.08149e-33 0.00385428
0.822721 0.137234 7.70372e-34 0.00380211
0.835106 0.00184056 0 0.000163298
0.835106 0.00558849 0 0.000763799
0.835106 0.00947248 0 0.00336037
0.835106 0.0134975 0 0.00481224
0.835107 0.0176687 0 0.00479516
0.835106 0.0219913 -3.46945e-18 0.00427179