# nutMean  POINT_DATA 63140
# x  y  z  nutMean
0 0.1 0 0.00523664
0 0.1 -0.0179898 0.00524182
0 0.1 0.0179898 0.0052315
0.0363518 0.1 0.0179898 0.0119301
0.0363518 0.1 -0.0179898 0.0117837
0 0.1 -0.0570102 0.00526454
0 0.1 0.0570102 0.0052336
0.0363518 0.1 0.0570102 0.0119322
0.0363518 0.1 -0.0570102 0.0118064
0 0.1 -0.075 0.00528002
0 0.1 0.075 0.00524053
0.075776 0.1 -0.0375 0.0186953
0.075776 0.1 0.0375 0.0189992
0 0.1 -0.0929898 0.00529608
0 0.1 0.0929898 0.0052475
0.0363518 0.1 -0.0929898 0.0112587
0.0363518 0.1 0.0929898 0.0115489
0 0.1 -0.13201 0.00532947
0 0.1 0.13201 0.00526813
0.075776 0.1 -0.1125 0.0175419
0.075776 0.1 0.1125 0.0182051
0.0363518 0.1 -0.13201 0.0112921
0.0363518 0.1 0.13201 0.0115696
0 0.1 -0.15 0.00534426
0 0.1 0.15 0.00527977
0.150379 0.1 -2.22623e-17 0.0181325
0 0.1 -0.16799 0.00536052
0 0.1 0.16799 0.00529213
0.150379 0.1 -0.075 0.0168618
0.150379 0.1 0.075 0.0177337
0.0363518 0.1 -0.16799 0.0104688
0.0363518 0.1 0.16799 0.0107325
0.075776 0.1 -0.1875 0.0158745
0.075776 0.1 0.1875 0.0164796
0 0.1 -0.20701 0.00538495
0 0.1 0.20701 0.0053174
0.0363518 0.1 -0.20701 0.0104932
0.0363518 0.1 0.20701 0.0107578
0.150379 0.1 -0.15 0.0149076
0.150379 0.1 0.15 0.0159595
0.219993 0.1 -0.0375 0.0173197
0.219993 0.1 0.0375 0.0175749
0 0.1 -0.225 0.00539318
0 0.1 0.225 0.00532873
0 0.1 -0.24299 0.00540309
0 0.1 0.24299 0.00534169
0.0363518 0.1 0.24299 0.00995241
0.0363518 0.1 -0.24299 0.00993608
0.219993 0.1 -0.1125 0.0139788
0.219993 0.1 0.1125 0.0162183
0.150379 0.1 -0.225 0.0137928
0.150379 0.1 0.225 0.014118
0.075776 0.1 -0.2625 0.0147792
0.075776 0.1 0.2625 0.0148572
0 0.1 -0.28201 0.00541017
0 0.1 0.28201 0.00535557
0.0363518 0.1 -0.28201 0.00994315
0.0363518 0.1 0.28201 0.00996628
0.287374 0.1 -2.89121e-19 0.0136394
0.219992 0.1 0.1875 0.0130287
0.219992 0.1 -0.1875 0.0123611
0.287374 0.1 -0.075 0.0126646
0.287374 0.1 0.075 0.0133663
0 0.1 -0.3 0.00540886
0 0.1 0.3 0.00535731
0 0.1 0.31799 0.0053604
0 0.1 -0.31799 0.00540851
0.0363518 0.1 -0.31799 0.00966542
0.0363518 0.1 0.31799 0.0095423
0.287374 0.1 0.15 0.0121512
0.287374 0.1 -0.15 0.011325
0.150379 0.1 -0.3 0.0132874
0.150379 0.1 0.3 0.0132453
0.219993 0.1 0.2625 0.0122189
0.219993 0.1 -0.2625 0.0122754
0.075776 0.1 -0.3375 0.0142138
0.075776 0.1 0.3375 0.0140148
0.350249 0.1 -0.0375 0.00994176
0.350249 0.1 0.0375 0.010033
0 0.1 -0.35701 0.00540212
0 0.1 0.35701 0.00535811
0.0363518 0.1 -0.35701 0.00965903
0.0363518 0.1 0.35701 0.00954001
0.287374 0.1 -0.225 0.01085
0.287374 0.1 0.225 0.0110535
0.350249 0.1 -0.1125 0.00965299
0.350249 0.1 0.1125 0.00991915
0 0.1 -0.375 0.00539746
0 0.1 0.375 0.00535436
0 0.1 -0.39299 0.00539332
0 0.1 0.39299 0.00535123
0.0363518 0.1 -0.39299 0.00936453
0.0363518 0.1 0.39299 0.00925978
0.350249 0.1 -0.1875 0.00944689
0.350249 0.1 0.1875 0.00962669
0.219992 0.1 -0.3375 0.0119799
0.219992 0.1 0.3375 0.0119827
0.150379 0.1 0.375 0.0128464
0.150379 0.1 -0.375 0.0130501
0.411108 0.1 4.33681e-19 0.00824051
0.287374 0.1 -0.3 0.0107828
0.287374 0.1 0.3 0.0107679
0.411108 0.1 -0.075 0.00814016
0.411108 0.1 0.075 0.00824248
0.075776 0.1 -0.4125 0.0136136
0.075776 0.1 0.4125 0.0134426
0 0.1 0.43201 0.00533814
0 0.1 -0.43201 0.00537558
0.0363518 0.1 0.43201 0.00924669
0.0363518 0.1 -0.43201 0.00934679
0.411108 0.1 -0.15 0.00801546
0.411108 0.1 0.15 0.00814749
0.350249 0.1 -0.2625 0.00944018
0.350249 0.1 0.2625 0.0094631
0 0.1 -0.45 0.00536428
0 0.1 0.45 0.00532995
0.219992 0.1 0.4125 0.012012
0.219992 0.1 -0.4125 0.01246
0 0.1 -0.46799 0.00535309
0 0.1 0.46799 0.00532206
0.411108 0.1 -0.225 0.00797734
0.411108 0.1 0.225 0.00804319
0.467897 0.1 -0.0375 0.00655443
0.467897 0.1 0.0375 0.00657116
0.0363518 0.1 0.46799 0.00897336
0.0363518 0.1 -0.46799 0.00906209
0.287374 0.1 -0.375 0.010895
0.287374 0.1 0.375 0.0107708
0.150379 0.1 0.45 0.0129523
0.150379 0.1 -0.45 0.0131529
0.467897 0.1 0.1125 0.00658373
0.467897 0.1 -0.1125 0.00654203
0.350249 0.1 -0.3375 0.00955131
0.350249 0.1 0.3375 0.00951868
0.075776 0.1 -0.4875 0.013035
0.075776 0.1 0.4875 0.0128874
0.467897 0.1 0.1875 0.00658807
0.467897 0.1 -0.1875 0.00654038
0 0.1 -0.50701 0.00532716
0 0.1 0.50701 0.00529929
0.0363518 0.1 -0.50701 0.00903616
0.0363518 0.1 0.50701 0.00895059
0.411108 0.1 0.3 0.00804172
0.411108 0.1 -0.3 0.008045
0.522865 0.1 1.41031e-17 0.00565711
0 0.1 -0.525 0.00531488
0 0.1 0.525 0.00528684
0.522865 0.1 -0.075 0.00565614
0.522865 0.1 0.075 0.00566958
0.287374 0.1 0.45 0.0112316
0.287374 0.1 -0.45 0.0113538
0.219992 0.1 0.4875 0.0134793
0.219992 0.1 -0.4875 0.0135113
0.467897 0.1 -0.2625 0.00659809
0.467897 0.1 0.2625 0.00661265
0.350249 0.1 -0.4125 0.00970512
0.350249 0.1 0.4125 0.00967351
0 0.1 -0.54299 0.00530216
0 0.1 0.54299 0.00527417
0.522865 0.1 0.15 0.00568915
0.522865 0.1 -0.15 0.00566994
0.0363518 0.1 0.54299 0.00870866
0.0363518 0.1 -0.54299 0.00878675
0.150379 0.1 -0.525 0.0131705
0.150379 0.1 0.525 0.0131627
0.411108 0.1 -0.375 0.00817704
0.411108 0.1 0.375 0.00814842
0.075776 0.1 -0.5625 0.0125232
0.075776 0.1 0.5625 0.0123932
0.522865 0.1 -0.225 0.00571008
0.522865 0.1 0.225 0.00572182
0.574156 0.1 0.0375 0.00478548
0.574157 0.1 -0.0375 0.00478616
0.467897 0.1 -0.3375 0.00670707
0.467897 0.1 0.3375 0.00668741
0 0.1 -0.58201 0.00527656
0 0.1 0.58201 0.00524847
0.0363518 0.1 -0.58201 0.00876115
0.0363518 0.1 0.58201 0.00868296
0.574157 0.1 -0.1125 0.00480961
0.574157 0.1 0.1125 0.00480688
0.287374 0.1 -0.525 0.0117083
0.287374 0.1 0.525 0.0117892
0 0.1 -0.6 0.00526525
0 0.1 0.6 0.00523734
0.350249 0.1 0.4875 0.0098985
0.350249 0.1 -0.4875 0.00988737
0.522865 0.1 -0.3 0.00579397
0.522865 0.1 0.3 0.00578204
0.219992 0.1 -0.5625 0.013574
0.219992 0.1 0.5625 0.0138426
0.574156 0.1 -0.1875 0.00485375
0.574156 0.1 0.1875 0.00484591
0.411108 0.1 0.45 0.00832844
0.411108 0.1 -0.45 0.00834891
0 0.1 -0.61799 0.00525328
0 0.1 0.61799 0.00522564
0.150379 0.1 -0.6 0.0128981
0.150379 0.1 0.6 0.0129678
0.0363518 0.1 -0.61799 0.00854513
0.0363518 0.1 0.61799 0.00847284
0.467897 0.1 -0.4125 0.00686303
0.467897 0.1 0.4125 0.0068305
0.623803 0.1 2.34188e-17 0.00426385
0.623803 0.1 0.075 0.00427268
0.623803 0.1 -0.075 0.00427795
0.574156 0.1 0.2625 0.00490716
0.574156 0.1 -0.2625 0.00491327
0.623803 0.1 0.15 0.00430253
0.623803 0.1 -0.15 0.00431378
0.075776 0.1 0.6375 0.0119605
0.075776 0.1 -0.6375 0.0120783
0.522865 0.1 -0.375 0.00592141
0.522865 0.1 0.375 0.00588797
0 0.1 0.65701 0.00520311
0 0.1 -0.65701 0.00523005
0.0363518 0.1 0.65701 0.0084503
0.0363518 0.1 -0.65701 0.0085219
0.350249 0.1 0.5625 0.0101062
0.350249 0.1 -0.5625 0.0100252
0.623803 0.1 0.225 0.00435281
0.623803 0.1 -0.225 0.00436959
0.287374 0.1 -0.6 0.0117303
0.287374 0.1 0.6 0.0119042
0.574157 0.1 -0.3375 0.00502287
0.574157 0.1 0.3375 0.00498681
0.411108 0.1 0.525 0.00854646
0.411108 0.1 -0.525 0.00853058
0.67013 0.1 0.0375 0.00375787
0.67013 0.1 -0.0375 0.0037625
0.219992 0.1 -0.6375 0.0133597
0.219993 0.1 0.6375 0.0136011
0 0.1 -0.675 0.00521993
0 0.1 0.675 0.00519349
0.467897 0.1 -0.4875 0.00706006
0.467897 0.1 0.4875 0.00703029
0.67013 0.1 -0.1125 0.00378998
0.67013 0.1 0.1125 0.00377719
0.522865 0.1 0.45 0.00604568
0.522865 0.1 -0.45 0.00608581
0.150379 0.1 0.675 0.0126313
0.150379 0.1 -0.675 0.0125865
0.623803 0.1 0.3 0.00442501
0.623803 0.1 -0.3 0.00445279
0 0.1 -0.69299 0.0052091
0 0.1 0.69299 0.00518322
0.0363518 0.1 -0.69299 0.00834052
0.0363518 0.1 0.69299 0.00827224
0.67013 0.1 -0.1875 0.00383808
0.67013 0.1 0.1875 0.00381684
0.574156 0.1 0.4125 0.00511356
0.574157 0.1 -0.4125 0.00515888
0.714971 0.1 -2.8382e-17 0.00341529
0.075776 0.1 -0.7125 0.0117045
0.075776 0.1 0.7125 0.0115933
0.714971 0.1 -0.075 0.00343139
0.714971 0.1 0.075 0.00342148
0.67013 0.1 0.2625 0.003878
0.67013 0.1 -0.2625 0.00390927
0.411108 0.1 -0.6 0.00868813
0.411108 0.1 0.6 0.00874766
0.350249 0.1 0.6375 0.0102273
0.350249 0.1 -0.6375 0.0101152
0.623803 0.1 0.375 0.00452449
0.623803 0.1 -0.375 0.00456729
0.714971 0.1 -0.15 0.00346833
0.714971 0.1 0.15 0.00344917
0.467897 0.1 -0.5625 0.00726928
0.467897 0.1 0.5625 0.00727172
0 0.1 -0.73201 0.00518888
0 0.1 0.73201 0.005164
0.0363518 0.1 0.73201 0.00825302
0.0363518 0.1 -0.73201 0.0083203
0.287374 0.1 -0.675 0.0116682
0.287374 0.1 0.675 0.0118204
0.522865 0.1 -0.525 0.00628022
0.522865 0.1 0.525 0.00624623
0.219993 0.1 -0.7125 0.0131368
0.219992 0.1 0.7125 0.0132906
0.714971 0.1 -0.225 0.00352656
0.714971 0.1 0.225 0.00349691
0 0.1 0.75 0.00515606
0 0.1 -0.75 0.00518047
0.67013 0.1 -0.3375 0.00400189
0.67013 0.1 0.3375 0.00396462
0.574156 0.1 -0.4875 0.00532888
0.574157 0.1 0.4875 0.0052763
0.756813 0.1 0.0375 0.00307845
0.756814 0.1 -0.0375 0.00308442
0.150379 0.1 0.746002 0.0123197
0.150379 0.1 -0.75 0.0123115
0.756813 0.1 -0.1125 0.00311073
0.756813 0.1 0.1125 0.00309454
0 0.1 0.76799 0.00514742
0 0.1 -0.76799 0.00517133
0.0363518 0.1 0.76799 0.00810782
0.0363518 0.1 -0.76799 0.00817256
0.623803 0.1 -0.45 0.00471095
0.623803 0.1 0.45 0.00465763
0.714971 0.1 -0.3 0.00360352
0.714971 0.1 0.3 0.00356737
0.756814 0.1 -0.1875 0.00315665
0.756814 0.1 0.1875 0.00313036
0.67013 0.1 -0.4125 0.00412231
0.67013 0.1 0.4125 0.00406985
0.411108 0.1 0.675 0.00890648
0.411108 0.1 -0.675 0.00882497
0.467897 0.1 0.6375 0.00750443
0.467897 0.1 -0.6375 0.00745925
0.075776 0.1 0.7875 0.0112937
0.075776 0.1 -0.7875 0.0113999
0.350249 0.1 -0.7125 0.0101995
0.350249 0.1 0.7125 0.0103051
0.522865 0.1 -0.6 0.00648858
0.522865 0.1 0.6 0.00647205
0.797314 0.1 -3.59473e-17 0.00283752
0.287374 0.1 0.746002 0.0117493
0.797314 0.1 -0.075 0.00285295
0.797314 0.1 0.075 0.0028419
0.756814 0.1 -0.2625 0.00322443
0.756814 0.1 0.2625 0.00318481
0.287374 0.1 -0.75 0.0116104
0.574156 0.1 -0.5625 0.00553127
0.574156 0.1 0.5625 0.00547664
0 0.1 0.80701 0.00513193
0 0.1 -0.80701 0.0051548
0.714971 0.1 -0.375 0.0037038
0.714971 0.1 0.375 0.00365715
0.0363518 0.1 0.80701 0.00809233
0.0363518 0.1 -0.80701 0.00815602
0.797314 0.1 -0.15 0.00288714
0.797314 0.1 0.15 0.00286585
0.623803 0.1 -0.525 0.0048854
0.623803 0.1 0.525 0.00482539
0.219992 0.1 0.7875 0.0130279
0.219992 0.1 -0.7875 0.0129314
0.149792 0.1 0.80701 0.0121224
0 0.1 0.825 0.00512592
0 0.1 -0.825 0.00514823
0.797314 0.1 -0.225 0.00294034
0.797314 0.1 0.225 0.00290796
0.756813 0.1 -0.3375 0.00330102
0.756813 0.1 0.3375 0.00326466
0.67013 0.1 0.4875 0.0042086
0.67013 0.1 -0.4875 0.00427126
0.835106 0.1 -0.0375 0.00260358
0.835106 0.1 0.0375 0.00259765
0.150379 0.1 -0.825 0.0120782
0.835106 0.1 -0.1125 0.00262711
0.835106 0.1 0.1125 0.00261102
0 0.1 -0.84299 0.00514091
0 0.1 0.84299 0.00511918
0.0363518 0.1 -0.84299 0.00803944
0.0363518 0.1 0.84299 0.00797851
0.714971 0.1 -0.45 0.00383236
0.714971 0.1 0.45 0.0037712
0.411108 0.1 0.746002 0.00906094
0.797314 0.1 -0.3 0.00301006
0.797314 0.1 0.3 0.00297017
0.467897 0.1 -0.7125 0.00763738
0.467897 0.1 0.7125 0.00770364
0.522865 0.1 0.675 0.00670116
0.522865 0.1 -0.675 0.00670436
0.411108 0.1 -0.75 0.00897223
0.835106 0.1 -0.1875 0.00266822
0.835107 0.1 0.1875 0.00264165
0.286844 0.1 0.80701 0.0116651
0.574156 0.1 0.6375 0.00570649
0.574157 0.1 -0.6375 0.00576199
0.350249 0.1 -0.7875 0.0102976
0.350249 0.1 0.7875 0.0103825
0.756813 0.1 -0.4125 0.00341292
0.756814 0.1 0.4125 0.00335249
0.623803 0.1 -0.6 0.00508919
0.623803 0.1 0.6 0.00502468
0.075776 0.1 0.8625 0.0110588
0.075776 0.1 -0.8625 0.0111594
0.871687 0.1 -3.2767e-18 0.0024192
0.287374 0.1 -0.825 0.0115693
0.871687 0.1 -0.075 0.00243324
0.871687 0.1 0.075 0.0024224
0.67013 0.1 -0.5625 0.00444858
0.67013 0.1 0.5625 0.00437894
0.835106 0.1 0.2625 0.00268935
0.835106 0.1 -0.2625 0.00272643
0.797314 0.1 -0.375 0.00309916
0.797314 0.1 0.375 0.00305083
0 0.1 -0.88201 0.00512836
0 0.1 0.88201 0.00510771
0.0363518 0.1 0.88201 0.00796704
0.0363518 0.1 -0.88201 0.00802688
0.871687 0.1 0.15 0.00244265
0.871687 0.1 -0.15 0.00246366
0.714971 0.1 0.525 0.00391683
0.714971 0.1 -0.525 0.00398672
0.219993 0.1 0.8625 0.012812
0.219992 0.1 -0.8625 0.0127442
0 0.1 0.9 0.00510364
0 0.1 -0.9 0.0051238
0.756813 0.1 0.4875 0.00347748
0.756814 0.1 -0.4875 0.00354631
0.871687 0.1 0.225 0.00247909
0.871687 0.1 -0.225 0.00251014
0.835106 0.1 -0.3375 0.00280288
0.835106 0.1 0.3375 0.00275651
0.41063 0.1 0.80701 0.00915758
0.90582 0.1 -0.0375 0.00224523
0.905821 0.1 0.0375 0.00223954
0.522865 0.1 0.746002 0.00693716
0.150379 0.1 0.9 0.0118673
0.90582 0.1 0.1125 0.00225062
0.905821 0.1 -0.1125 0.00226628
0.522865 0.1 -0.75 0.0069426
0.574156 0.1 0.7125 0.00595965
0.574156 0.1 -0.7125 0.00602266
0.797314 0.1 -0.45 0.00321225
0.797314 0.1 0.45 0.00315093
0.467897 0.1 -0.7875 0.00785992
0.467897 0.1 0.7875 0.00789468
0.150379 0.1 -0.903998 0.0119241
0 0.1 0.91799 0.00509882
0 0.1 -0.91799 0.00511846
0.0363518 0.1 0.91799 0.00788136
0.0363518 0.1 -0.91799 0.00793813
0.623803 0.1 0.675 0.00525047
0.623803 0.1 -0.675 0.00532178
0.411108 0.1 -0.825 0.00915212
0.871687 0.1 0.3 0.0025324
0.871687 0.1 -0.3 0.00257396
0.67013 0.1 -0.6375 0.00465426
0.67013 0.1 0.6375 0.00457677
0.90582 0.1 -0.1875 0.00230234
0.90582 0.1 0.1875 0.00227664
0.350249 0.1 0.8625 0.0104753
0.350249 0.1 -0.8625 0.0104135
0.835106 0.1 -0.4125 0.00289465
0.835106 0.1 0.4125 0.0028445
0.714971 0.1 -0.6 0.00416826
0.714971 0.1 0.6 0.00408938
0.93886 0.1 -1.15648e-17 0.00214313
0.075776 0.1 0.9375 0.0108816
0.075776 0.1 -0.9375 0.0109762
0.93886 0.1 0.075 0.00214585
0.93886 0.1 -0.075 0.00215563
0.756813 0.1 0.5625 0.00362656
0.756814 0.1 -0.5625 0.00370467
0.905821 0.1 -0.2625 0.00235306
0.905821 0.1 0.2625 0.00231818
0.287374 0.1 0.9 0.011602
0.287374 0.1 -0.903998 0.01153
0.871687 0.1 0.375 0.00260483
0.871687 0.1 -0.375 0.00265353
0.93886 0.1 -0.15 0.00218239
0.93886 0.1 0.15 0.00216345
0.797314 0.1 0.525 0.00327609
0.797314 0.1 -0.525 0.00334854
0 0.1 0.95701 0.00509142
0 0.1 -0.95701 0.00511023
0.0363518 0.1 0.95701 0.00787396
0.0363518 0.1 -0.95701 0.0079299
0.522433 0.1 0.80701 0.00712057
0.219992 0.1 0.9375 0.0126308
0.219992 0.1 -0.9375 0.0126039
0.93886 0.1 0.225 0.0021953
0.93886 0.1 -0.225 0.00222301
0.90582 0.1 0.3375 0.00237524
0.905821 0.1 -0.3375 0.00242313
0.835106 0.1 -0.4875 0.00301054
0.835107 0.1 0.4875 0.00294446
0.969689 0.1 -0.0375 0.00204832
0.969689 0.1 0.0375 0.00204355
0.61613 0.1 0.75 0.00550111
0.574156 0.1 -0.7875 0.00631058
0.574156 0.1 0.7875 0.00623657
0 0.1 0.975 0.00508935
0 0.1 -0.975 0.00510786
0.623803 0.1 -0.75 0.00558336
0.969689 0.1 -0.1125 0.00206686
0.969689 0.1 0.1125 0.0020538
0.522865 0.1 -0.825 0.00721316
0.67013 0.1 0.7125 0.00480025
0.67013 0.1 -0.7125 0.00488846
0.871687 0.1 -0.45 0.00275143
0.871687 0.1 0.45 0.00269222
0.467897 0.1 0.8625 0.00812
0.467897 0.1 -0.8625 0.00813665
0.714971 0.1 -0.675 0.00437755
0.714971 0.1 0.675 0.00428773
0.93886 0.1 -0.3 0.00227918
0.93886 0.1 0.3 0.00224157
0.150379 0.1 0.975 0.0117136
0.150379 0.1 -0.975 0.0117537
0.969689 0.1 -0.1875 0.00209832
0.969689 0.1 0.1875 0.00207692
0.411108 0.1 0.9 0.0093689
0.756813 0.1 0.6375 0.00380028
0.756814 0.1 -0.6375 0.00389015
0.990306 0.1 -2.19732e-17 0.0019683
0 0.1 0.99299 0.0050865
0 0.1 -0.99299 0.00510466
0.411108 0.1 -0.903998 0.00931654
0.990306 0.1 -0.075 0.00197943
0.990306 0.1 0.075 0.0019708
0.0363518 0.1 0.99299 0.0078135
0.0363518 0.1 -0.99299 0.007867
0.90582 0.1 -0.4125 0.00250336
0.905821 0.1 0.4125 0.00245301
0.797314 0.1 -0.6 0.00350991
0.797314 0.1 0.6 0.00342605
0.350249 0.1 0.9375 0.0105867
0.350249 0.1 -0.9375 0.0105461
0.990306 0.1 0.15 0.00198672
0.990306 0.1 -0.15 0.00200338
0.969689 0.1 -0.2625 0.00214269
0.969689 0.1 0.2625 0.00211372
0.835106 0.1 -0.5625 0.00314862
0.835106 0.1 0.5625 0.00307182
0.93886 0.1 -0.375 0.00234966
0.93886 0.1 0.375 0.00230423
0.075776 0.1 1.0125 0.0107563
0.075776 0.1 -1.0125 0.0108462
0.990306 0.1 -0.225 0.00204006
0.990306 0.1 0.225 0.00201564
0.287374 0.1 0.975 0.0115869
0.287374 0.1 -0.975 0.0115658
0.871687 0.1 -0.525 0.00287316
0.871687 0.1 0.525 0.00279927
1.02149 0.1 -0.0369628 0.00182399
1.02149 0.1 0.0369628 0.00181981
0.969689 0.1 -0.3375 0.00220243
0.969689 0.1 0.3375 0.00216352
1.02149 0.1 -0.110888 0.00183942
1.02149 0.1 0.110888 0.00182784
0.90582 0.1 0.4875 0.0025372
0.90582 0.1 -0.4875 0.0026074
0.623803 0.1 0.819003 0.00566183
0 0.1 1.03201 0.00508318
0 0.1 -1.03201 0.00510063
0.0363518 0.1 1.03201 0.00781019
0.0363518 0.1 -1.03201 0.00786297
0.67013 0.1 -0.7875 0.00515285
0.67013 0.1 0.7875 0.00505027
0.623803 0.1 -0.825 0.0058692
0.990306 0.1 -0.3 0.0020907
0.990306 0.1 0.3 0.00205774
0.219992 0.1 -1.0125 0.012507
0.219993 0.1 1.0125 0.0125
0.574156 0.1 0.8625 0.0065348
0.574157 0.1 -0.8625 0.00660468
0.714971 0.1 -0.75 0.00461591
0.714971 0.1 0.75 0.00451185
1.02149 0.1 0.184814 0.00184756
1.02149 0.1 -0.184814 0.00186646
0.756814 0.1 -0.7125 0.00410263
0.756814 0.1 0.7125 0.0039995
0.522865 0.1 0.9 0.00745579
0.93886 0.1 -0.45 0.00244402
0.93886 0.1 0.45 0.00238055
1.04168 0.1 0 0.00175236
1.04168 0.1 -0.0729162 0.00176111
1.04168 0.1 0.0729162 0.00175384
0.522865 0.1 -0.903998 0.00745751
0.797314 0.1 -0.675 0.00369827
0.797314 0.1 0.675 0.00360032
0.467897 0.1 0.9375 0.00838959
0.467897 0.1 -0.9375 0.00844155
0 0.1 1.05 0.0050831
0 0.1 -1.05 0.00510018
0.835106 0.1 -0.6375 0.00331282
0.835106 0.1 0.6375 0.00322218
1.04168 0.1 -0.145832 0.00177964
1.04168 0.1 0.145832 0.00176568
1.02149 0.1 -0.25874 0.00190574
1.02149 0.1 0.25874 0.00187961
0.969689 0.1 -0.4125 0.00227453
0.969689 0.1 0.4125 0.00222976
0.411108 0.1 0.975 0.00957363
0.411108 0.1 -0.975 0.00959171
0.871687 0.1 -0.6 0.00301956
0.871687 0.1 0.6 0.00293263
1.0579 0.1 -0.0360525 0.00170411
1.0579 0.1 0.0360525 0.00170036
0.990306 0.1 -0.375 0.00215585
0.990306 0.1 0.375 0.00211435
0.150379 0.1 1.05 0.0116075
0.150379 0.1 -1.05 0.0116615
1.0579 0.1 0.108157 0.00170615
1.0579 0.1 -0.108157 0.00171625
1.04168 0.1 -0.218749 0.00180862
1.04168 0.1 0.218749 0.00178794
0.90582 0.1 -0.5625 0.00273661
0.90582 0.1 0.5625 0.00265426
0 0.1 -1.06799 0.00509884
0 0.1 1.06799 0.00508216
0.0363518 0.1 -1.06799 0.00782138
0.0363518 0.1 1.06799 0.00777189
0.350249 0.1 1.0125 0.0107148
0.350249 0.1 -1.0125 0.0106914
1.0579 0.1 -0.180262 0.00173692
1.0579 0.1 0.180262 0.00172042
1.02149 0.1 -0.332665 0.00195896
1.02149 0.1 0.332665 0.00192419
0.93886 0.1 -0.525 0.00256199
0.93886 0.1 0.525 0.00248359
1.08012 0.1 5.49329e-18 0.00164517
1.04168 0.1 -0.291665 0.00184916
1.04168 0.1 0.291665 0.00182119
1.08012 0.1 0.0709941 0.00164626
1.08012 0.1 -0.0709941 0.00165247
0.969689 0.1 -0.4875 0.00239547
0.96969 0.1 0.4875 0.00230708
1.0579 0.1 0.252367 0.00174426
1.0579 0.1 -0.252367 0.00176739
0.990306 0.1 -0.45 0.00224875
0.990306 0.1 0.45 0.00218551
0.287374 0.1 -1.05 0.011607
0.287374 0.1 1.05 0.0116029
0.714971 0.1 0.821002 0.00473538
1.08012 0.1 -0.141988 0.00166748
1.08012 0.1 0.141988 0.00165568
0.075776 0.1 1.0875 0.0106768
0.075776 0.1 -1.0875 0.01076
0.714971 0.1 -0.825 0.00488686
0.756813 0.1 -0.7875 0.00434569
0.756814 0.1 0.7875 0.00422408
0.67013 0.1 -0.8625 0.00545009
0.67013 0.1 0.8625 0.00532736
0.797314 0.1 -0.75 0.00391464
0.797314 0.1 0.75 0.00379983
0.623803 0.1 0.9 0.00607201
0.835106 0.1 -0.7125 0.00350472
0.835106 0.1 0.7125 0.00339671
0.623803 0.1 -0.903998 0.00612779
0.574156 0.1 0.9375 0.006839
0.574156 0.1 -0.9375 0.00689094
1.02149 0.1 -0.406591 0.00202922
1.02149 0.1 0.406591 0.0019834
1.08012 0.1 -0.212982 0.0016909
1.08012 0.1 0.212982 0.00167331
1.10076 0.1 -0.0349809 0.00159482
1.10076 0.1 0.0349809 0.0015917
0.871687 0.1 -0.675 0.00319335
0.871687 0.1 0.675 0.00308893
1.04168 0.1 -0.364581 0.00190364
1.04168 0.1 0.364581 0.00186649
1.10076 0.1 -0.104943 0.0016053
1.10076 0.1 0.104943 0.00159739
0.522865 0.1 0.975 0.00774824
0.522865 0.1 -0.975 0.00781698
1.0579 0.1 -0.324472 0.00180883
1.0579 0.1 0.324472 0.00177815
0 0.1 -1.10701 0.00509849
0 0.1 1.10701 0.00508273
0.0363518 0.1 1.10701 0.00777245
0.0363518 0.1 -1.10701 0.00782103
0.90582 0.1 0.6375 0.00279322
0.905821 0.1 -0.6375 0.00289096
0.219992 0.1 1.0875 0.0124115
0.219992 0.1 -1.0875 0.0124498
0.93886 0.1 0.6 0.00261105
0.93886 0.1 -0.6 0.00269481
1.10076 0.1 -0.174905 0.00162309
1.10076 0.1 0.174905 0.0016102
0.467897 0.1 1.0125 0.00869273
0.467897 0.1 -1.0125 0.00877341
1.08012 0.1 -0.283976 0.00172375
1.08012 0.1 0.283976 0.0017
1.11928 0.1 3.93204e-18 0.00155458
0.990306 0.1 -0.525 0.00235914
0.990306 0.1 0.525 0.00228641
0.96969 0.1 -0.5625 0.00251309
0.969689 0.1 0.5625 0.00244052
1.11928 0.1 -0.0690357 0.00156085
1.11928 0.1 0.0690357 0.0015557
0 0.1 1.125 0.00508445
0 0.1 -1.125 0.00509973
0.411108 0.1 -1.05 0.00984103
0.411108 0.1 1.05 0.00980179
1.10076 0.1 0.244866 0.00163131
1.10076 0.1 -0.244866 0.00164947
1.11928 0.1 -0.138072 0.00157375
1.11928 0.1 0.138072 0.00156412
1.02149 0.1 0.480517 0.00205961
1.02149 0.1 -0.480517 0.00212312
1.0579 0.1 -0.396577 0.00186505
1.0579 0.1 0.396577 0.0018236
1.04168 0.1 -0.437497 0.00197611
1.04168 0.1 0.437497 0.00192622
0.150379 0.1 1.125 0.0115433
0.150379 0.1 -1.125 0.0116077
0.714971 0.1 0.88201 0.00476757
1.08012 0.1 0.354971 0.00173653
1.08012 0.1 -0.354971 0.00176829
1.11928 0.1 -0.207107 0.00159392
1.11928 0.1 0.207107 0.00157953
0.350249 0.1 -1.0875 0.0108543
0.350249 0.1 1.0875 0.010859
0 0.1 1.14299 0.00508525
0 0.1 -1.14299 0.00510001
0.0363518 0.1 1.14299 0.00775212
0.0363518 0.1 -1.14299 0.00779676
1.14316 0.1 -0.0339211 0.00150096
1.14316 0.1 0.0339211 0.00149832
0.797314 0.1 0.821002 0.00402015
1.10076 0.1 -0.314829 0.00168492
1.10076 0.1 0.314829 0.0016613
0.797314 0.1 -0.825 0.0041624
0.756814 0.1 -0.8625 0.00462534
0.756814 0.1 0.8625 0.00447515
1.14316 0.1 -0.101763 0.0015095
1.14316 0.1 0.101763 0.00150282
0.835106 0.1 -0.7875 0.00372345
0.835106 0.1 0.7875 0.00359715
0.871687 0.1 -0.75 0.00339271
0.871687 0.1 0.75 0.00327072
0.67013 0.1 0.9375 0.00563018
0.67013 0.1 -0.9375 0.00577486
0.90582 0.1 -0.7125 0.0030759
0.905821 0.1 0.7125 0.00295489
0.714971 0.1 -0.903998 0.00514986
1.11928 0.1 0.276143 0.0016029
1.11928 0.1 -0.276143 0.00162218
1.14316 0.1 0.169605 0.00151309
1.14316 0.1 -0.169605 0.00152384
0.93886 0.1 -0.675 0.00284526
0.93886 0.1 0.675 0.00275114
1.15704 0.1 0 0.00147164
1.0579 0.1 0.468682 0.00188417
1.0579 0.1 -0.468682 0.00193683
0.623803 0.1 0.975 0.00637987
0.623803 0.1 -0.975 0.00649382
0.990306 0.1 0.6 0.0024075
0.990306 0.1 -0.6 0.00247891
1.15704 0.1 -0.0671479 0.00147695
1.15704 0.1 0.0671479 0.00147256
1.04168 0.1 -0.510414 0.00205777
1.04168 0.1 0.510414 0.00200329
0.969689 0.1 -0.6375 0.00264363
0.969689 0.1 0.6375 0.00256092
1.08012 0.1 0.425965 0.00178522
1.08012 0.1 -0.425965 0.00182656
0.287374 0.1 -1.125 0.0116886
0.287374 0.1 1.125 0.0116572
1.02149 0.1 -0.554443 0.00221332
1.02149 0.1 0.554443 0.00215992
0.574156 0.1 1.0125 0.00713204
0.574156 0.1 -1.0125 0.00722216
1.15704 0.1 -0.134296 0.00148763
1.15704 0.1 0.134296 0.00147963
0.075776 0.1 1.1625 0.0106344
0.075776 0.1 -1.1625 0.0107096
1.10076 0.1 -0.384791 0.00173286
1.10076 0.1 0.384791 0.00170084
1.14316 0.1 -0.237448 0.00154507
1.14316 0.1 0.237448 0.00152996
1.11928 0.1 -0.345179 0.00166046
1.11928 0.1 0.345179 0.0016348
0.522865 0.1 1.05 0.00805827
0.522865 0.1 -1.05 0.00816329
1.15704 0.1 -0.201444 0.00150418
1.15704 0.1 0.201444 0.00149239
1.1744 0.1 -0.0331401 0.00144025
1.1744 0.1 0.0331401 0.00143784
1.1744 0.1 -0.0994202 0.0014477
1.1744 0.1 0.0994202 0.00144192
0 0.1 1.18201 0.00508921
0 0.1 -1.18201 0.00510322
0.0363518 0.1 1.18201 0.00775607
0.0363518 0.1 -1.18201 0.00779997
0.219992 0.1 1.1625 0.0123652
0.219993 0.1 -1.1625 0.0124272
1.14316 0.1 0.30529 0.00155431
1.14316 0.1 -0.30529 0.00157382
0.467897 0.1 1.0875 0.00902259
0.467897 0.1 -1.0875 0.0091229
1.1744 0.1 -0.1657 0.00145985
1.1744 0.1 0.1657 0.00145095
1.15704 0.1 -0.268592 0.00152735
1.15704 0.1 0.268592 0.00151173
1.0579 0.1 0.540787 0.00195953
1.0579 0.1 -0.540787 0.00201129
0.796996 0.1 0.88201 0.00421526
1.08012 0.1 -0.496959 0.00189627
1.08012 0.1 0.496959 0.00184706
1.10076 0.1 0.454752 0.00175315
1.10076 0.1 -0.454752 0.00179224
1.11928 0.1 -0.414214 0.00170985
1.11928 0.1 0.414214 0.0016771
1.04168 0.1 -0.58333 0.00215126
1.04168 0.1 0.58333 0.00209895
1.1744 0.1 -0.231981 0.00147786
1.1744 0.1 0.231981 0.00146535
0.871687 0.1 0.821002 0.00347249
0.411108 0.1 1.125 0.0100485
0.411108 0.1 -1.125 0.0101086
1.19808 0.1 1.73472e-17 0.00139024
0.990306 0.1 0.675 0.00253417
0.990306 0.1 -0.675 0.00261405
1.02149 0.1 0.628368 0.00227248
1.02149 0.1 -0.628368 0.00233693
1.19808 0.1 -0.0650961 0.00139491
1.19808 0.1 0.0650961 0.001391
0 0.1 1.2 0.00509245
0 0.1 -1.2 0.00510627
0.871687 0.1 -0.825 0.00361571
0.905821 0.1 -0.7875 0.00327809
0.90582 0.1 0.7875 0.00314573
0.835106 0.1 -0.8625 0.0039738
0.835106 0.1 0.8625 0.00382288
0.93886 0.1 -0.75 0.00301884
0.93886 0.1 0.75 0.00291079
1.14316 0.1 -0.373132 0.00161278
1.14316 0.1 0.373132 0.00158655
0.969689 0.1 0.7125 0.00270076
0.969689 0.1 -0.7125 0.00277653
1.15704 0.1 -0.33574 0.0015588
1.15704 0.1 0.33574 0.00153822
0.756813 0.1 0.9375 0.00475924
0.756814 0.1 -0.9375 0.00493745
1.19808 0.1 0.130192 0.00139713
1.19808 0.1 -0.130192 0.00140406
0.797314 0.1 -0.903998 0.00440617
0.714971 0.1 0.975 0.00534986
0.714971 0.1 -0.975 0.00552303
0.150379 0.1 1.2 0.0115157
0.150379 0.1 -1.2 0.011586
1.20938 0.1 -0.0322656 0.00137186
1.20938 0.1 0.0322656 0.00136957
1.1744 0.1 -0.298261 0.00150202
1.1744 0.1 0.298261 0.00148631
1.20938 0.1 -0.0967968 0.00137862
1.20938 0.1 0.0967968 0.00137336
1.19808 0.1 -0.195288 0.00141797
1.19808 0.1 0.195288 0.00140794
0.350249 0.1 1.1625 0.0110555
0.350249 0.1 -1.1625 0.0110866
0.67013 0.1 1.0125 0.00596063
0.67013 0.1 -1.0125 0.0061265
0 0.1 1.21799 0.00509471
0 0.1 -1.21799 0.0051083
0.0363518 0.1 -1.21799 0.0077896
0.0363518 0.1 1.21799 0.00774901
1.11928 0.1 -0.48325 0.00177295
1.11928 0.1 0.48325 0.0017304
1.10076 0.1 -0.524714 0.00186838
1.10076 0.1 0.524714 0.00181598
1.20938 0.1 0.161328 0.00138149
1.20938 0.1 -0.161328 0.00138954
1.08012 0.1 0.567953 0.00192521
1.08012 0.1 -0.567953 0.00197335
0.623803 0.1 1.05 0.00670352
0.623803 0.1 -1.05 0.00684709
1.0579 0.1 -0.612892 0.00210634
1.0579 0.1 0.612892 0.00205393
1.15704 0.1 -0.402888 0.0015994
1.15704 0.1 0.402888 0.00157339
1.14316 0.1 0.440974 0.00162937
1.14316 0.1 -0.440974 0.00166177
1.19808 0.1 -0.260384 0.00143715
1.19808 0.1 0.260384 0.00142418
1.2267 0.1 3.57064e-18 0.00133768
1.2267 0.1 -0.0636649 0.0013421
1.2267 0.1 0.0636649 0.00133835
1.1744 0.1 -0.364541 0.00153499
1.1744 0.1 0.364541 0.0015138
0.574156 0.1 1.0875 0.00744684
0.574156 0.1 -1.0875 0.00759545
1.20938 0.1 0.225859 0.00139422
1.20938 0.1 -0.225859 0.00140536
1.04168 0.1 -0.656246 0.00227236
1.04168 0.1 0.656246 0.00220195
1.2267 0.1 -0.12733 0.00135072
1.2267 0.1 0.12733 0.0013441
0.287374 0.1 1.2 0.0117651
0.287374 0.1 -1.2 0.011826
1.02149 0.1 -0.702294 0.00248527
1.02149 0.1 0.702294 0.00239379
0.075776 0.1 -1.2375 0.0106877
0.075776 0.1 1.2375 0.0106193
0.871399 0.1 0.88201 0.00365075
0.522865 0.1 1.125 0.0083779
0.522865 0.1 -1.125 0.00850857
1.2267 0.1 -0.190994 0.00136371
1.2267 0.1 0.190994 0.00135411
1.19808 0.1 -0.32548 0.00146284
1.19808 0.1 0.32548 0.00144624
0.990306 0.1 -0.75 0.00277377
0.990306 0.1 0.75 0.00267804
1.24274 0.1 -0.0314313 0.00130818
1.24274 0.1 0.0314313 0.00130588
1.20938 0.1 -0.29039 0.00142626
1.20938 0.1 0.29039 0.00141274
1.24274 0.1 -0.0942942 0.00131446
1.24274 0.1 0.0942942 0.00130944
0.93886 0.1 0.821002 0.00308514
1.11928 0.1 -0.552285 0.00184126
1.11928 0.1 0.552285 0.00179777
1.15704 0.1 -0.470036 0.00165389
1.15704 0.1 0.470036 0.00161794
0.969689 0.1 -0.7875 0.00295182
0.96969 0.1 0.7875 0.00284783
0.93886 0.1 -0.825 0.00321893
0.90582 0.1 0.8625 0.00335946
0.905821 0.1 -0.8625 0.00349942
1.1744 0.1 -0.430821 0.00157592
1.1744 0.1 0.430821 0.00155056
1.10076 0.1 -0.594676 0.00193949
1.10076 0.1 0.594676 0.00189856
1.14316 0.1 -0.508816 0.00172553
1.14316 0.1 0.508816 0.00168161
1.24274 0.1 -0.157157 0.00132486
1.24274 0.1 0.157157 0.00131701
1.2267 0.1 -0.254659 0.00138138
1.2267 0.1 0.254659 0.00136913
0.467897 0.1 1.1625 0.0093345
0.467897 0.1 -1.1625 0.00944647
1.08012 0.1 0.638947 0.00200967
1.08012 0.1 -0.638947 0.00206859
1.25511 0.1 -5.78241e-19 0.00128346
0.835106 0.1 -0.9375 0.00425353
0.835106 0.1 0.9375 0.00408038
0.871687 0.1 -0.903998 0.00384051
1.25511 0.1 0.0622446 0.00128394
1.25511 0.1 -0.0622446 0.00128779
0.219992 0.1 1.2375 0.0123588
0.219992 0.1 -1.2375 0.0124343
0 0.1 -1.25701 0.00511497
0 0.1 1.25701 0.00510201
0.0363518 0.1 -1.25701 0.00779627
0.0363518 0.1 1.25701 0.00775631
0.797314 0.1 0.975 0.00456611
0.797314 0.1 -0.975 0.0047561
1.19808 0.1 -0.390576 0.0014959
1.19808 0.1 0.390576 0.00147525
1.0579 0.1 -0.684997 0.00222658
1.0579 0.1 0.684997 0.00214536
1.20938 0.1 -0.354921 0.00145434
1.20938 0.1 0.354921 0.00143654
1.25511 0.1 0.124489 0.00128932
1.25511 0.1 -0.124489 0.00129613
1.24274 0.1 -0.220019 0.00133958
1.24274 0.1 0.220019 0.00132866
0.756813 0.1 1.0125 0.00507776
0.756814 0.1 -1.0125 0.00528062
1.2267 0.1 -0.318324 0.00140467
1.2267 0.1 0.318324 0.00138944
0.411108 0.1 1.2 0.0103165
0.411108 0.1 -1.2 0.0104121
1.25511 0.1 -0.186734 0.00130867
1.25511 0.1 0.186734 0.00129864
0.714971 0.1 1.05 0.00568615
0.714971 0.1 -1.05 0.00587596
1.04168 0.1 -0.729162 0.00242128
1.04168 0.1 0.729162 0.00232304
1.24274 0.1 0.282882 0.00134585
1.24274 0.1 -0.282882 0.00135875
0 0.1 1.275 0.00510704
0 0.1 -1.275 0.00511965
1.1744 0.1 0.497102 0.00159532
1.1744 0.1 -0.497102 0.00163645
1.15704 0.1 -0.537184 0.00171088
1.15704 0.1 0.537184 0.00167336
1.2756 0.1 -0.03061 0.00124362
1.2756 0.1 0.03061 0.00124132
0.67013 0.1 1.0875 0.00631553
0.67013 0.1 -1.0875 0.00648415
1.2756 0.1 -0.09183 0.00124967
1.2756 0.1 0.09183 0.00124447
1.25511 0.1 -0.248978 0.00132551
1.25511 0.1 0.248978 0.00131269
1.20938 0.1 0.419453 0.00146817
1.20938 0.1 -0.419453 0.00148916
1.11928 0.1 -0.621322 0.00191989
1.11928 0.1 0.621322 0.00187103
1.14316 0.1 -0.576659 0.00178505
1.14316 0.1 0.576659 0.00174887
1.19808 0.1 -0.455673 0.00154181
1.19808 0.1 0.455673 0.00151227
1.02149 0.1 0.776219 0.00254801
1.02149 0.1 -0.776219 0.00266393
0.150379 0.1 1.275 0.0115194
0.150379 0.1 -1.275 0.0115939
1.2756 0.1 -0.15305 0.0012599
1.2756 0.1 0.15305 0.0012515