# nutMean  POINT_DATA 63840
# x  y  z  nutMean
0 0.5 3.39583e-17 0.0153871
0 0.5 -0.00617931 0.0153933
0 0.5 0.00617931 0.0153873
0.0124865 0.5 -0.00617931 0.0164551
0.0124865 0.5 0.00617931 0.0164511
0 0.5 -0.0688207 0.0153862
0 0.5 0.0688207 0.0152955
0.0124865 0.5 -0.0688207 0.016448
0.0124865 0.5 0.0688207 0.0163594
0 0.5 -0.075 0.0153787
0 0.5 0.075 0.0152772
0 0.5 -0.0811793 0.0153775
0 0.5 0.0811793 0.0152651
0.0124865 0.5 -0.0811793 0.0164609
0.0124865 0.5 0.0811793 0.0163363
0.075776 0.5 -0.0375 0.0218166
0.075776 0.5 0.0375 0.0217943
0.075776 0.5 -0.1125 0.0218921
0.075776 0.5 0.1125 0.021654
0 0.5 -0.143821 0.0152182
0 0.5 0.143821 0.0150208
0.0124865 0.5 -0.143821 0.0163015
0.0124865 0.5 0.143821 0.0160921
0 0.5 -0.15 0.0151877
0 0.5 0.15 0.0149845
0.151149 0.5 -0.00137318 0.0192762
0 0.5 -0.156179 0.0151633
0 0.5 0.156179 0.0149541
0.0124865 0.5 -0.156179 0.0162184
0.0124865 0.5 0.156179 0.0159958
0.151149 0.5 0.075 0.0191977
0.151149 0.5 -0.075 0.0192498
0.075776 0.5 -0.1875 0.0213952
0.075776 0.5 0.1875 0.0210776
0.151149 0.5 0.15 0.0189467
0.151149 0.5 -0.15 0.0190716
0 0.5 -0.218821 0.0148382
0 0.5 0.218821 0.0145776
0.0124865 0.5 -0.218821 0.0158933
0.0124865 0.5 0.218821 0.0156193
0.219992 0.5 0.0375 0.0168861
0.219993 0.5 -0.0375 0.0168798
0 0.5 -0.225 0.0147981
0 0.5 0.225 0.0145332
0 0.5 -0.231179 0.0147635
0 0.5 0.231179 0.0144942
0.0124865 0.5 -0.231179 0.0157816
0.0124865 0.5 0.231179 0.0154975
0.219992 0.5 0.1125 0.0167952
0.219993 0.5 -0.1125 0.0167598
0.151149 0.5 -0.225 0.0186677
0.151149 0.5 0.225 0.0184987
0.075776 0.5 -0.2625 0.0207262
0.075776 0.5 0.2625 0.0203479
0.288069 0.5 -0.00137318 0.0136695
0.219992 0.5 0.1875 0.0165846
0.219993 0.5 -0.1875 0.0165837
0 0.5 0.293821 0.0140591
0 0.5 -0.293821 0.0143611
0.0124865 0.5 -0.293821 0.0153792
0.0124865 0.5 0.293821 0.0150624
0.288069 0.5 -0.075 0.0136144
0.288069 0.5 0.075 0.0136381
0 0.5 -0.3 0.0143158
0 0.5 0.3 0.0140118
0 0.5 0.306179 0.0139692
0 0.5 -0.306179 0.0142757
0.0124865 0.5 -0.306179 0.0152523
0.0124865 0.5 0.306179 0.0149304
0.288069 0.5 -0.15 0.013556
0.288069 0.5 0.15 0.0135851
0.151149 0.5 -0.3 0.0181544
0.151149 0.5 0.3 0.0179616
0.219992 0.5 -0.2625 0.0162861
0.219992 0.5 0.2625 0.0162819
0.075776 0.5 0.3375 0.0195571
0.075776 0.5 -0.3375 0.0199655
0.350249 0.5 -0.0375 0.0106055
0.350249 0.5 0.0375 0.0106176
0.288069 0.5 -0.225 0.0134591
0.288069 0.5 0.225 0.0134785
0.350249 0.5 0.1125 0.0106567
0.350249 0.5 -0.1125 0.0106159
0 0.5 0.368821 0.0135202
0 0.5 -0.368821 0.0138409
0.0124865 0.5 -0.368821 0.0148175
0.0124865 0.5 0.368821 0.0144815
0 0.5 -0.375 0.0137952
0 0.5 0.375 0.0134744
0 0.5 -0.381179 0.0137535
0 0.5 0.381179 0.0134316
0.0124865 0.5 -0.381179 0.0146883
0.0124865 0.5 0.381179 0.0143509
0.350249 0.5 -0.1875 0.0106569
0.350249 0.5 0.1875 0.0106947
0.219992 0.5 -0.3375 0.0159331
0.219992 0.5 0.3375 0.0159267
0.151149 0.5 -0.375 0.0175965
0.151149 0.5 0.375 0.0173911
0.411736 0.5 -0.00137318 0.00904966
0.288069 0.5 -0.3 0.0133202
0.288069 0.5 0.3 0.0133402
0.411736 0.5 -0.075 0.00904406
0.411736 0.5 0.075 0.00906262
0.075776 0.5 -0.4125 0.01919
0.075776 0.5 0.4125 0.0187735
0.350249 0.5 -0.2625 0.0106844
0.350249 0.5 0.2625 0.0107251
0.411736 0.5 -0.15 0.0090784
0.411736 0.5 0.15 0.00910916
0 0.5 -0.443821 0.0133237
0 0.5 0.443821 0.0130012
0.0124865 0.5 -0.443821 0.0142586
0.0124865 0.5 0.443821 0.0139205
0 0.5 -0.45 0.0132813
0 0.5 0.45 0.0129597
0 0.5 -0.456179 0.0132405
0 0.5 0.456179 0.0129188
0.0124865 0.5 -0.456179 0.0141359
0.0124865 0.5 0.456179 0.0137987
0.219992 0.5 -0.4125 0.0155621
0.219993 0.5 0.4125 0.0155446
0.411736 0.5 -0.225 0.00913235
0.411736 0.5 0.225 0.009166
0.467897 0.5 0.0375 0.00755966
0.467897 0.5 -0.0375 0.00755454
0.288069 0.5 -0.375 0.0131722
0.288069 0.5 0.375 0.0131921
0.151149 0.5 -0.45 0.0170422
0.151149 0.5 0.45 0.0168292
0.467897 0.5 -0.1125 0.00758516
0.467897 0.5 0.1125 0.00760234
0.350249 0.5 0.3375 0.0107753
0.350249 0.5 -0.3375 0.0107283
0.075776 0.5 -0.4875 0.0184537
0.075776 0.5 0.4875 0.0180427
0.467897 0.5 -0.1875 0.00763944
0.467897 0.5 0.1875 0.00766772
0.411736 0.5 -0.3 0.00920186
0.411736 0.5 0.3 0.00923557
0 0.5 -0.518821 0.0128419
0 0.5 0.518821 0.0125307
0.0124865 0.5 0.518821 0.0134105
0.0124865 0.5 -0.518821 0.0137373
0.523432 0.5 -0.00137318 0.0066697
0 0.5 -0.525 0.0128048
0 0.5 0.525 0.0124957
0.523432 0.5 -0.075 0.00667737
0.523432 0.5 0.075 0.00668412
0 0.5 -0.531179 0.0127668
0 0.5 0.531179 0.0124596
0.0124865 0.5 -0.531179 0.0136267
0.0124865 0.5 0.531179 0.0133055
0.288069 0.5 -0.45 0.013031
0.288069 0.5 0.45 0.0130458
0.219992 0.5 -0.4875 0.0151996
0.219993 0.5 0.4875 0.0151665
0.467897 0.5 -0.2625 0.00773017
0.467897 0.5 0.2625 0.0077587
0.350249 0.5 -0.4125 0.0107893
0.350249 0.5 0.4125 0.0108422
0.523432 0.5 -0.15 0.00672177
0.523432 0.5 0.15 0.00673565
0.151149 0.5 -0.525 0.0165257
0.151149 0.5 0.525 0.0163104
0.411736 0.5 -0.375 0.00929214
0.411736 0.5 0.375 0.00932671
0.075776 0.5 -0.5625 0.017791
0.075776 0.5 0.5625 0.0174067
0.523432 0.5 -0.225 0.0067912
0.523432 0.5 0.225 0.00681332
0.574156 0.5 -0.0375 0.00581792
0.574156 0.5 0.0375 0.00581842
0.467897 0.5 0.3375 0.00786204
0.467897 0.5 -0.3375 0.00784207
0.574156 0.5 -0.1125 0.00584982
0.574156 0.5 0.1125 0.00585452
0 0.5 -0.593821 0.0124202
0 0.5 0.593821 0.0121287
0.0124865 0.5 -0.593821 0.0132801
0.0124865 0.5 0.593821 0.0129746
0.288069 0.5 -0.525 0.0129099
0.288069 0.5 0.525 0.0129128
0 0.5 -0.6 0.0123904
0 0.5 0.6 0.0121002
0.350249 0.5 -0.4875 0.0108687
0.350249 0.5 0.4875 0.0109208
0.523432 0.5 -0.3 0.00689228
0.523432 0.5 0.3 0.00691066
0.219992 0.5 -0.5625 0.0148698
0.219992 0.5 0.5625 0.0148133
0.574156 0.5 -0.1875 0.00591039
0.574156 0.5 0.1875 0.00591678
0 0.5 -0.606179 0.012359
0 0.5 0.606179 0.0120707
0.0124865 0.5 -0.606179 0.0131912
0.0124865 0.5 0.606179 0.0128896
0.411736 0.5 -0.45 0.00940569
0.411736 0.5 0.45 0.00944101
0.151149 0.5 -0.6 0.0160744
0.151149 0.5 0.6 0.0158581
0.62168 0.5 2.64545e-17 0.00528305
0.467897 0.5 0.4125 0.00800229
0.467897 0.5 -0.4125 0.00798193
0.624316 0.5 0.0729402 0.00526484
0.624316 0.5 -0.075 0.00526444
0.574156 0.5 -0.2625 0.00598284
0.574157 0.5 0.2625 0.00600887
0.075776 0.5 -0.6375 0.0172451
0.075776 0.5 0.6375 0.0168813
0.624316 0.5 -0.15 0.00530891
0.624316 0.5 0.15 0.00531069
0.523432 0.5 -0.375 0.00702454
0.523432 0.5 0.375 0.00703321
0.350249 0.5 -0.5625 0.0109687
0.350249 0.5 0.5625 0.0110118
0.624316 0.5 -0.225 0.0053772
0.624316 0.5 0.225 0.00538313
0.288069 0.5 0.6 0.0128022
0.288069 0.5 -0.6 0.0128177
0.574156 0.5 -0.3375 0.00611213
0.574156 0.5 0.3375 0.00611184
0.411736 0.5 -0.525 0.00954353
0.411736 0.5 0.525 0.00957395
0 0.5 -0.668821 0.0120727
0 0.5 0.668821 0.0118015
0.0124865 0.5 -0.668821 0.0129049
0.0124865 0.5 0.668821 0.0126204
0.67013 0.5 0.0375 0.0047072
0.67013 0.5 -0.0375 0.00470883
0.219993 0.5 -0.6375 0.0145823
0.219993 0.5 0.6375 0.0145011
0 0.5 -0.675 0.0120483
0 0.5 0.675 0.0117786
0.467897 0.5 0.4875 0.00816877
0.467897 0.5 -0.4875 0.00815078
0.67013 0.5 -0.1125 0.00473883
0.67013 0.5 0.1125 0.00473706
0 0.5 -0.681179 0.0120233
0 0.5 0.681179 0.0117553
0.0124865 0.5 -0.681179 0.0128338
0.0124865 0.5 0.681179 0.0125528
0.523432 0.5 -0.45 0.00718255
0.523432 0.5 0.45 0.00718826
0.151149 0.5 -0.675 0.0157014
0.151149 0.5 0.675 0.0154833
0.624316 0.5 -0.3 0.00547507
0.624316 0.5 0.3 0.00547933
0.67013 0.5 0.1875 0.00479259
0.67013 0.5 -0.1875 0.0047944
0.574156 0.5 -0.4125 0.00625944
0.574157 0.5 0.4125 0.0062554
0.708171 0.5 1.88651e-17 0.00438295
0.075776 0.5 -0.7125 0.0168022
0.075776 0.5 0.7125 0.0164646
0.715434 0.5 0.0736268 0.00434162
0.715434 0.5 -0.075 0.00433589
0.67013 0.5 0.2625 0.00487295
0.67013 0.5 -0.2625 0.00487878
0.350249 0.5 -0.6375 0.0110901
0.350249 0.5 0.6375 0.011116
0.411736 0.5 -0.6 0.00970619
0.411736 0.5 0.6 0.00972497
0.624316 0.5 -0.375 0.0056043
0.624316 0.5 0.375 0.00559847
0.715434 0.5 -0.15 0.00437691
0.715434 0.5 0.15 0.00437298
0.467897 0.5 -0.5625 0.00834826
0.467897 0.5 0.5625 0.00835883
0.288069 0.5 -0.675 0.0127605
0.288069 0.5 0.675 0.0127219
0.523432 0.5 -0.525 0.00736971
0.523432 0.5 0.525 0.00736897
0 0.5 -0.743821 0.0117991
0 0.5 0.743821 0.0115491
0.0124865 0.5 -0.743821 0.0126096
0.0124865 0.5 0.743821 0.0123465
0.219992 0.5 0.7125 0.0142433
0.219992 0.5 -0.7125 0.0143504
0.715434 0.5 -0.225 0.00444432
0.715434 0.5 0.225 0.00443679
0 0.5 -0.75 0.0117806
0 0.5 0.75 0.0115323
0.67013 0.5 0.3375 0.00498248
0.67013 0.5 -0.3375 0.00498441
0.574156 0.5 -0.4875 0.0064351
0.574156 0.5 0.4875 0.00642515
0 0.5 -0.756179 0.0117614
0 0.5 0.756179 0.0115148
0.0124865 0.5 -0.756179 0.0125558
0.0124865 0.5 0.756179 0.0122965
0.756813 0.5 -0.0375 0.00395215
0.756813 0.5 0.0375 0.00394953
0.151149 0.5 -0.75 0.0154118
0.151149 0.5 0.75 0.0151916
0.756813 0.5 -0.1125 0.00397961
0.756813 0.5 0.1125 0.00397475
0.624316 0.5 -0.45 0.00576009
0.624316 0.5 0.45 0.00574555
0.715434 0.5 -0.3 0.00453237
0.715434 0.5 0.3 0.00452661
0.756813 0.5 0.1875 0.00402374
0.756813 0.5 -0.1875 0.0040308
0.67013 0.5 -0.4125 0.00512006
0.67013 0.5 0.4125 0.00510341
0.411736 0.5 -0.675 0.00989363
0.411736 0.5 0.675 0.00989405
0.467897 0.5 0.6375 0.0085715
0.467897 0.5 -0.6375 0.00857392
0.075776 0.5 -0.7875 0.0164755
0.075776 0.5 0.7875 0.0161605
0.350249 0.5 -0.7125 0.0112338
0.350249 0.5 0.7125 0.011235
0.523432 0.5 -0.6 0.00758629
0.523432 0.5 0.6 0.00757447
0.797732 0.5 2.68882e-17 0.00367749
0.756813 0.5 -0.2625 0.00410951
0.756814 0.5 0.2625 0.00409448
0.797732 0.5 0.0736268 0.00369072
0.797732 0.5 -0.075 0.00369181
0.288069 0.5 -0.75 0.0127438
0.288069 0.5 0.75 0.0126787
0.574156 0.5 -0.5625 0.00664133
0.574157 0.5 0.5625 0.00662146
0.715434 0.5 -0.375 0.00464619
0.715434 0.5 0.375 0.00463504
0.797732 0.5 -0.15 0.00372911
0.797732 0.5 0.15 0.0037227
0.624316 0.5 -0.525 0.00594513
0.624316 0.5 0.525 0.00592148
0.219992 0.5 -0.7875 0.0141807
0.219992 0.5 0.7875 0.014046
0 0.5 -0.818821 0.0116009
0 0.5 0.818821 0.0113702
0.0124865 0.5 0.818821 0.012152
0.0124865 0.5 -0.818821 0.0123952
0 0.5 -0.825 0.0115891
0 0.5 0.825 0.0113603
0.756813 0.5 0.3375 0.0041936
0.756814 0.5 -0.3375 0.00419365
0.67013 0.5 -0.4875 0.0052852
0.67013 0.5 0.4875 0.00525849
0.797732 0.5 -0.225 0.00379007
0.797732 0.5 0.225 0.00377918
0 0.5 -0.831179 0.0115757
0 0.5 0.831179 0.0113483
0.0124865 0.5 -0.831179 0.0123602
0.0124865 0.5 0.831179 0.0121207
0.835106 0.5 0.0375 0.0034142
0.835106 0.5 -0.0375 0.00341691
0.151149 0.5 -0.825 0.0152092
0.151149 0.5 0.825 0.0149859
0.835106 0.5 0.1125 0.00343615
0.835106 0.5 -0.1125 0.00344146
0.715434 0.5 -0.45 0.00479182
0.715434 0.5 0.45 0.00476581
0.797732 0.5 -0.3 0.00387122
0.797732 0.5 0.3 0.00385871
0.467897 0.5 0.7125 0.00880525
0.467897 0.5 -0.7125 0.00882656
0.523432 0.5 -0.675 0.00783165
0.523432 0.5 0.675 0.00780382
0.411736 0.5 -0.75 0.0101059
0.411736 0.5 0.75 0.0100824
0.835106 0.5 -0.1875 0.00348762
0.835106 0.5 0.1875 0.00347928
0.574156 0.5 -0.6375 0.00687775
0.574157 0.5 0.6375 0.00684399
0.350249 0.5 -0.7875 0.0114014
0.350249 0.5 0.7875 0.0113751
0.756813 0.5 -0.4125 0.00432415
0.756814 0.5 0.4125 0.00429836
0.075776 0.5 -0.8625 0.0162586
0.075776 0.5 0.8625 0.0159643
0.624316 0.5 0.6 0.00612409
0.624316 0.5 -0.6 0.00616004
0.872064 0.5 5.91974e-17 0.00320115
0.870122 0.5 0.075 0.00322392
0.288069 0.5 -0.825 0.0127694
0.288069 0.5 0.825 0.0126772
0.67013 0.5 -0.5625 0.00547893
0.67013 0.5 0.5625 0.00544179
0.872064 0.5 -0.075 0.00321404
0.835106 0.5 -0.2625 0.00355575
0.835106 0.5 0.2625 0.00354261
0.797732 0.5 -0.375 0.0039738
0.797732 0.5 0.375 0.00395871
0.872064 0.5 0.14794 0.00324052
0.872064 0.5 -0.15 0.00324738
0.715434 0.5 -0.525 0.00496352
0.715434 0.5 0.525 0.00492778
0.219992 0.5 0.8625 0.0139145
0.219993 0.5 -0.8625 0.014074
0 0.5 -0.893821 0.0114776
0 0.5 0.893821 0.0112661
0.0124865 0.5 -0.893821 0.0122622
0.0124865 0.5 0.893821 0.0120386
0 0.5 -0.9 0.0114723
0 0.5 0.9 0.0112622
0.756813 0.5 -0.4875 0.00447582
0.756813 0.5 0.4875 0.00444136
0.872064 0.5 -0.225 0.00330127
0.872064 0.5 0.225 0.00329062
0.835106 0.5 -0.3375 0.00364937
0.835106 0.5 0.3375 0.00362799
0 0.5 0.906179 0.0112581
0 0.5 -0.906179 0.011466
0.0124865 0.5 -0.906179 0.012248
0.0124865 0.5 0.906179 0.0120289
0.90582 0.5 -0.0375 0.00299607
0.90582 0.5 0.0375 0.00299348
0.151149 0.5 -0.9 0.0150943
0.151149 0.5 0.9 0.0148691
0.90582 0.5 -0.1125 0.00301783
0.905821 0.5 0.1125 0.00301263
0.523432 0.5 -0.75 0.00810493
0.523432 0.5 0.75 0.00805587
0.574156 0.5 -0.7125 0.00714381
0.574156 0.5 0.7125 0.00709183
0.797732 0.5 -0.45 0.00410333
0.797732 0.5 0.45 0.00407716
0.467897 0.5 0.7875 0.00905902
0.467897 0.5 -0.7875 0.0091052
0.624316 0.5 -0.675 0.00640503
0.624316 0.5 0.675 0.0063526
0.411736 0.5 -0.825 0.0103427
0.411736 0.5 0.825 0.0102913
0.872064 0.5 0.3 0.00336055
0.872064 0.5 -0.3 0.00337824
0.67013 0.5 -0.6375 0.00570285
0.67013 0.5 0.6375 0.00565079
0.90582 0.5 0.1875 0.0030503
0.905821 0.5 -0.1875 0.0030589
0.350249 0.5 -0.8625 0.0115922
0.350249 0.5 0.8625 0.0115374
0.835106 0.5 -0.4125 0.0037518
0.835106 0.5 0.4125 0.00373885
0.715434 0.5 -0.6 0.00516354
0.715434 0.5 0.6 0.00511522
0.939201 0.5 2.75387e-17 0.00288773
0.075776 0.5 0.9375 0.0158896
0.075776 0.5 -0.9375 0.0161593
0.939111 0.5 0.075 0.00289793
0.939201 0.5 -0.075 0.00289956
0.756813 0.5 0.5625 0.00460852
0.756814 0.5 -0.5625 0.00465283
0.90582 0.5 0.2625 0.00310681
0.905821 0.5 -0.2625 0.00311931
0.288069 0.5 -0.9 0.0128381
0.288069 0.5 0.9 0.0127186
0.872064 0.5 -0.375 0.00346958
0.872064 0.5 0.375 0.00345341
0.939201 0.5 0.148627 0.00292604
0.939201 0.5 -0.15 0.00293036
0.797732 0.5 -0.525 0.00425887
0.797732 0.5 0.525 0.00422064
0.219992 0.5 0.9375 0.0138474
0.219992 0.5 -0.9375 0.0140319
0.939201 0.5 -0.225 0.00297992
0.939201 0.5 0.225 0.00297166
0.905821 0.5 -0.3375 0.00320532
0.90582 0.5 0.3375 0.00318161
0.835106 0.5 -0.4875 0.00388632
0.835106 0.5 0.4875 0.0038545
0 0.5 0.968821 0.0112294
0 0.5 -0.968821 0.0114253
0.0124865 0.5 -0.968821 0.0122073
0.0124865 0.5 0.968821 0.0120003
0.969689 0.5 -0.0375 0.00278521
0.969689 0.5 0.0375 0.00278317
0.574156 0.5 -0.7875 0.00743881
0.574156 0.5 0.7875 0.0073638
0 0.5 -0.975 0.0114215
0 0.5 0.975 0.0112253
0.624316 0.5 -0.75 0.00667971
0.624316 0.5 0.75 0.00660663
0.969689 0.5 -0.1125 0.00280615
0.96969 0.5 0.1125 0.00280285
0.523432 0.5 -0.825 0.00840523
0.523432 0.5 0.825 0.00832941
0.67013 0.5 0.7125 0.00588617
0.67013 0.5 -0.7125 0.00595707
0 0.5 -0.981179 0.0114205
0 0.5 0.981179 0.0112248
0.467897 0.5 0.8625 0.00933147
0.467897 0.5 -0.8625 0.00940831
0.0124865 0.5 -0.981179 0.0122013
0.0124865 0.5 0.981179 0.0119924
0.872064 0.5 -0.45 0.00358107
0.872064 0.5 0.45 0.00355986
0.715434 0.5 -0.675 0.00539321
0.715434 0.5 0.675 0.00532815
0.939201 0.5 -0.3 0.00305014
0.939201 0.5 0.3 0.00303648
0.151149 0.5 0.975 0.0148271
0.151149 0.5 -0.975 0.0150586
0.969689 0.5 -0.1875 0.00284562
0.969689 0.5 0.1875 0.00284033
0.756813 0.5 -0.6375 0.00485906
0.756813 0.5 0.6375 0.00479962
0.411736 0.5 -0.9 0.0106031
0.411736 0.5 0.9 0.0105221
0.90582 0.5 -0.4125 0.00328911
0.90582 0.5 0.4125 0.00328241
0.995005 0.5 0.0749309 0.00266631
0.797732 0.5 -0.6 0.00444138
0.797732 0.5 0.6 0.00439041
1.00005 0.5 -8.47123e-18 0.00262866
0.350249 0.5 -0.9375 0.0118071
0.350249 0.5 0.9375 0.0117216
1.00005 0.5 -0.0749309 0.0026395
0.969689 0.5 -0.2625 0.00290299
0.969689 0.5 0.2625 0.00289617
0.835106 0.5 -0.5625 0.004046
0.835106 0.5 0.5625 0.00400359
1.00005 0.5 -0.149862 0.00266829
0.939201 0.5 -0.375 0.00313441
0.939201 0.5 0.375 0.00312163
1.00029 0.5 0.148988 0.00266833
0.075776 0.5 -1.0125 0.0161396
0.075776 0.5 1.0125 0.0158709
0.288069 0.5 0.975 0.0128015
0.288069 0.5 -0.975 0.0129538
0.872064 0.5 -0.525 0.00372174
0.872064 0.5 0.525 0.00368572
1.00005 0.5 0.224793 0.00270967
1.00005 0.5 -0.224793 0.00271499
0.969689 0.5 0.3375 0.00296836
0.96969 0.5 -0.3375 0.00298024
1.0271 0.5 -0.0368226 0.00246594
1.0271 0.5 0.0368226 0.00246453
0.90582 0.5 0.4875 0.00338141
0.905821 0.5 -0.4875 0.00341488
1.0271 0.5 -0.110468 0.00248393
1.0271 0.5 0.110468 0.002471
0.67013 0.5 0.7875 0.00614768
0.67013 0.5 -0.7875 0.0062411
0.624316 0.5 0.825 0.00688536
0.624316 0.5 -0.825 0.00698358
0.219993 0.5 -1.0125 0.0140479
0.219993 0.5 1.0125 0.0138397
0.574156 0.5 -0.8625 0.00776223
0.574156 0.5 0.8625 0.00765861
0.715434 0.5 -0.75 0.00565241
0.715434 0.5 0.75 0.0055672
0.756813 0.5 0.7125 0.00501673
0.756814 0.5 -0.7125 0.00509424
0.523432 0.5 -0.9 0.00873142
0.523432 0.5 0.9 0.00862516
0.939201 0.5 -0.45 0.00325063
0.939201 0.5 0.45 0.00322087
1.04168 0.5 0 0.00238942
1.0271 0.5 -0.184113 0.00251856
1.0271 0.5 0.184113 0.00251507
0 0.5 -1.04382 0.0114082
0 0.5 1.04382 0.0112165
0.0124865 0.5 -1.04382 0.0121891
0.0124865 0.5 1.04382 0.0119841
1.00005 0.5 -0.299723 0.00278026
1.00005 0.5 0.299723 0.0027719
1.04168 0.5 -0.0729162 0.00239832
1.04168 0.5 0.0729162 0.00239655
0.797732 0.5 -0.675 0.00465336
0.797732 0.5 0.675 0.0045847
0.467897 0.5 0.9375 0.00962895
0.467897 0.5 -0.9375 0.00973423
0 0.5 -1.05 0.011404
0 0.5 1.05 0.0112131
0.835106 0.5 -0.6375 0.0042339
0.835106 0.5 0.6375 0.00417612
1.04168 0.5 -0.145832 0.00242209
1.04168 0.5 0.145832 0.00241949
0.969689 0.5 -0.4125 0.0030703
0.96969 0.5 0.4125 0.00306133
0 0.5 -1.05618 0.0114011
0 0.5 1.05618 0.0112107
0.0124865 0.5 -1.05618 0.0121737
0.0124865 0.5 1.05618 0.0119691
1.05695 0.5 -0.0360764 0.00231401
1.05695 0.5 0.0360764 0.00231252
0.411736 0.5 -0.975 0.0108955
0.411736 0.5 0.975 0.0107757
0.872064 0.5 -0.6 0.00388749
0.872064 0.5 0.6 0.0038398
1.0271 0.5 -0.257759 0.00257039
1.0271 0.5 0.257759 0.00256504
0.151149 0.5 -1.05 0.0150656
0.151149 0.5 1.05 0.0148185
1.05695 0.5 0.108229 0.00231113
1.05695 0.5 -0.108229 0.00232864
1.04168 0.5 -0.218749 0.00246133
1.04168 0.5 0.218749 0.00245718
0.90582 0.5 -0.5625 0.00355803
0.905821 0.5 0.5625 0.0035216
1.00005 0.5 -0.374654 0.00286446
1.00005 0.5 0.374654 0.00285253
0.350249 0.5 1.0125 0.0119287
0.350249 0.5 -1.0125 0.0120651
1.05695 0.5 -0.180382 0.00235681
1.05695 0.5 0.180382 0.00235347
1.07319 0.5 0.0709442 0.00225521
0.939201 0.5 -0.525 0.0033948
0.939201 0.5 0.525 0.0033506
1.0271 0.5 -0.331404 0.00264053
1.0271 0.5 0.331404 0.0026314
1.08112 0.5 3.23815e-17 0.00222103
1.04168 0.5 -0.291665 0.00251672
1.04168 0.5 0.291665 0.00251004
1.08112 0.5 -0.0709442 0.00222827
0.969689 0.5 -0.4875 0.00323477
0.96969 0.5 0.4875 0.00316557
1.05695 0.5 0.252535 0.00239415
1.05695 0.5 -0.252535 0.00239951
0.288069 0.5 -1.05 0.0131116
0.288069 0.5 1.05 0.01292
0.075776 0.5 -1.0875 0.016097
0.075776 0.5 1.0875 0.0158193
1.08112 0.5 -0.141888 0.00224782
1.08145 0.5 0.140165 0.00225002
0.715434 0.5 0.825 0.00583193
0.715434 0.5 -0.825 0.0059416
0.756813 0.5 0.7875 0.00525984
0.756814 0.5 -0.7875 0.00535852
0.67013 0.5 -0.8625 0.00655467
0.67013 0.5 0.8625 0.00643481
0.797732 0.5 -0.75 0.00489561
0.797732 0.5 0.75 0.00480511
0.624316 0.5 -0.9 0.00731624
0.624316 0.5 0.9 0.00718781
1.00005 0.5 -0.449585 0.00298443
1.00005 0.5 0.449585 0.00295171
0.835106 0.5 -0.7125 0.00445323
0.835106 0.5 0.7125 0.00437334
0.574156 0.5 -0.9375 0.00811323
0.574157 0.5 0.9375 0.00797567
1.10076 0.5 -0.0349809 0.00215397
1.10076 0.5 0.0349809 0.00215306
1.08112 0.5 -0.212832 0.00228058
1.08112 0.5 0.212832 0.00227833
0.872064 0.5 -0.675 0.00408398
0.872064 0.5 0.675 0.00401589
1.04168 0.5 -0.364581 0.00259145
1.04168 0.5 0.364581 0.00257906
1.0271 0.5 0.405049 0.00271671
1.0271 0.5 -0.405049 0.00273336
1.05695 0.5 -0.324688 0.00245741
1.05695 0.5 0.324688 0.00244881
1.10076 0.5 -0.104943 0.00216643
1.10076 0.5 0.104943 0.0021664
0.523432 0.5 0.975 0.00894534
0.523432 0.5 -0.975 0.00908784
0.90582 0.5 0.6375 0.00367662
0.905821 0.5 -0.6375 0.00373092
0.219992 0.5 1.0875 0.0138781
0.219992 0.5 -1.0875 0.0141155
1.11376 0.5 3.81639e-17 0.00211228
0.939201 0.5 0.6 0.00350765
0.939201 0.5 -0.6 0.00353912
1.10076 0.5 -0.174905 0.00219116
1.10076 0.5 0.174905 0.00219132
0.467897 0.5 -1.0125 0.0100985
0.467897 0.5 1.0125 0.00994775
1.11376 0.5 -0.0693118 0.00211873
1.11376 0.5 0.0693118 0.00211844
1.08112 0.5 0.283777 0.00232323
1.08112 0.5 -0.283777 0.00232717
0 0.5 -1.11882 0.0114249
0 0.5 1.11882 0.0112437
0.0124865 0.5 -1.11882 0.0121975
0.0124865 0.5 1.11882 0.0120021
0.969689 0.5 -0.5625 0.00337738
0.969689 0.5 0.5625 0.00334032
1.11376 0.5 0.138624 0.00213931
1.11376 0.5 -0.138624 0.00213683
0 0.5 -1.125 0.0114329
0 0.5 1.125 0.0112533
1.10076 0.5 0.244866 0.00222877
1.10076 0.5 -0.244866 0.00222933
0.411736 0.5 -1.05 0.0112202
0.411736 0.5 1.05 0.0110508
1.05695 0.5 -0.396841 0.00253669
1.05695 0.5 0.396841 0.00251933
1.00005 0.5 -0.524516 0.00311971
1.00005 0.5 0.524516 0.00308388
1.04168 0.5 -0.437497 0.00269002
1.04168 0.5 0.437497 0.00266736
0 0.5 -1.13118 0.0114408
0 0.5 1.13118 0.0112624
0.0124865 0.5 -1.13118 0.0122207
0.0124865 0.5 1.13118 0.0120287
1.11376 0.5 -0.207935 0.0021675
1.11376 0.5 0.207935 0.00216788
1.0271 0.5 -0.478694 0.00285465
1.0271 0.5 0.478694 0.00282325
0.151149 0.5 -1.125 0.0151359
0.151149 0.5 1.125 0.0148762
1.08112 0.5 -0.354722 0.00239095
1.08112 0.5 0.354722 0.00238199
1.13882 0.5 -0.0340295 0.0020308
1.13882 0.5 0.0340295 0.00203026
0.350249 0.5 -1.0875 0.0123397
0.350249 0.5 1.0875 0.0121515
1.13882 0.5 -0.102088 0.00204216
1.13882 0.5 0.102088 0.0020388
1.10076 0.5 -0.314829 0.00228089
1.10076 0.5 0.314829 0.00227929
0.756813 0.5 -0.8625 0.00565429
0.756814 0.5 0.8625 0.00552786
0.797732 0.5 -0.825 0.00516888
0.797732 0.5 0.825 0.00505222
1.11376 0.5 -0.277247 0.00221121
1.11376 0.5 0.277247 0.00221104
0.835106 0.5 0.7875 0.00459838
0.835106 0.5 -0.7875 0.00470403
0.715434 0.5 -0.9 0.00626228
0.715434 0.5 0.9 0.0061222
0.872064 0.5 -0.75 0.00431138
0.872064 0.5 0.75 0.00421962
1.13882 0.5 0.170147 0.00206643
1.13882 0.5 -0.170147 0.00206507
0.67013 0.5 -0.9375 0.00689777
0.67013 0.5 0.9375 0.00674595
0.905821 0.5 -0.7125 0.00393726
0.905821 0.5 0.7125 0.00385683
1.05695 0.5 0.468994 0.00261055
1.05695 0.5 -0.468994 0.00263626
0.939201 0.5 -0.675 0.00370542
0.939201 0.5 0.675 0.00366218
0.624316 0.5 0.975 0.00751591
0.624316 0.5 -0.975 0.00767997
1.04168 0.5 -0.510414 0.00279981
1.04168 0.5 0.510414 0.00277739
0.969689 0.5 -0.6375 0.00349692
0.96969 0.5 0.6375 0.0034979
0.288069 0.5 -1.125 0.0133138
0.288069 0.5 1.125 0.0130771
1.16179 0.5 5.78241e-19 0.00195144
1.08112 0.5 0.425666 0.00245796
1.08112 0.5 -0.425666 0.00247305
1.13882 0.5 -0.238206 0.00210033
1.13882 0.5 0.238206 0.00210166
1.16179 0.5 0.0669104 0.00194577
1.16179 0.5 -0.0669104 0.00195679
0.574156 0.5 -1.0125 0.00849646
0.574156 0.5 1.0125 0.00832169
0.075776 0.5 -1.1625 0.0161952
0.075776 0.5 1.1625 0.0159455
1.00005 0.5 -0.599447 0.00325237
1.00005 0.5 0.599447 0.00323984
1.10076 0.5 0.384791 0.00234344
1.10076 0.5 -0.384791 0.00235205
1.0271 0.5 -0.55234 0.00296695
1.0271 0.5 0.55234 0.00295706
1.11376 0.5 -0.346559 0.00227089
1.11376 0.5 0.346559 0.00226718
1.16179 0.5 -0.133821 0.00197243
1.16179 0.5 0.133821 0.00197256
0.523432 0.5 -1.05 0.00947826
0.523432 0.5 1.05 0.00929057
1.17463 0.5 -0.0331343 0.00190963
1.17463 0.5 0.0331343 0.00190924
1.17463 0.5 -0.0994029 0.00191919
1.17463 0.5 0.0994029 0.00192069
1.16179 0.5 -0.200731 0.00199922
1.16179 0.5 0.200731 0.00200132
1.13882 0.5 -0.306265 0.00214805
1.13882 0.5 0.306265 0.0021492
0.219992 0.5 -1.1625 0.0142673
0.219992 0.5 1.1625 0.0139927
0.467897 0.5 -1.0875 0.0104934
0.467897 0.5 1.0875 0.0102921
1.17463 0.5 0.165672 0.00194185
1.17463 0.5 -0.165672 0.00193925
1.05695 0.5 -0.541147 0.00273936
1.05695 0.5 0.541147 0.00272029
1.18772 0.5 -5.78241e-19 0.00186757
1.11376 0.5 -0.41587 0.00234624
1.11376 0.5 0.41587 0.00233919
1.18772 0.5 -0.065614 0.00187213
1.18772 0.5 0.065614 0.00187371
1.08112 0.5 -0.49661 0.00257143
1.08112 0.5 0.49661 0.00255151
1.10076 0.5 -0.454752 0.00243633
1.10076 0.5 0.454752 0.0024268
1.18534 0.5 0.118202 0.00188859
1.16179 0.5 -0.267642 0.00203742
1.16179 0.5 0.267642 0.00203986
0 0.5 -1.19382 0.0115226
0 0.5 1.19382 0.0113564
0.0124865 0.5 1.19382 0.0121227
0.0124865 0.5 -1.19382 0.0123024
1.04168 0.5 -0.58333 0.00291734
1.04168 0.5 0.58333 0.0029099
1.18772 0.5 -0.131228 0.00188604
1.17463 0.5 -0.23194 0.00197025
1.17463 0.5 0.23194 0.00197329
0.411736 0.5 -1.125 0.0115682
0.411736 0.5 1.125 0.011345
1.13882 0.5 -0.374324 0.00221297
1.13882 0.5 0.374324 0.00220919
0 0.5 -1.2 0.0115312
0 0.5 1.2 0.011366
0.905821 0.5 0.7875 0.00406985
0.905821 0.5 -0.7875 0.00417096
0.872064 0.5 -0.825 0.00456958
0.872064 0.5 0.825 0.00445241
0.835106 0.5 0.8625 0.00485132
0.835106 0.5 -0.8625 0.00498681
0.939201 0.5 -0.75 0.0039087
0.939201 0.5 0.75 0.00383682
0.797732 0.5 -0.9 0.00547477
0.797732 0.5 0.9 0.00532855
1.0271 0.5 0.625985 0.00310369
1.0271 0.5 -0.625985 0.0031134
0.969689 0.5 0.7125 0.00362411
0.96969 0.5 -0.7125 0.00366493
1.18772 0.5 -0.196842 0.00191022
1.18772 0.5 0.196842 0.00191373
0.756814 0.5 -0.9375 0.00598524
0.756814 0.5 0.9375 0.0058235
0 0.5 1.20618 0.0113767
0 0.5 -1.20618 0.0115411
1.00005 0.5 -0.674378 0.00341085
1.00005 0.5 0.674378 0.00338365
0.0124865 0.5 1.20618 0.012149
0.0124865 0.5 -1.20618 0.0123269
1.16179 0.5 -0.334552 0.00208958
1.16179 0.5 0.334552 0.00208993
0.715434 0.5 0.975 0.00644043
0.715434 0.5 -0.975 0.00662112
0.151149 0.5 -1.2 0.0153011
0.151149 0.5 1.2 0.0150289
1.20942 0.5 0.0322645 0.00179494
1.20942 0.5 -0.0322645 0.00179612
1.17463 0.5 -0.298209 0.00201218
1.17463 0.5 0.298209 0.00201606
1.20942 0.5 -0.0967935 0.0018038
1.20942 0.5 0.0967935 0.00180636
0.350249 0.5 -1.1625 0.0126426
0.350249 0.5 1.1625 0.012394
0.67013 0.5 1.0125 0.00708447
0.67013 0.5 -1.0125 0.00727569
1.11376 0.5 0.485183 0.00242704
1.11376 0.5 -0.485183 0.0024415
1.18772 0.5 0.262456 0.00194925
1.18772 0.5 -0.262456 0.00194486
1.10076 0.5 -0.524714 0.0025466
1.10076 0.5 0.524714 0.00252369
1.20942 0.5 -0.161322 0.00182103
1.20942 0.5 0.161322 0.00182515
1.08112 0.5 -0.567554 0.0026729
1.08112 0.5 0.567554 0.0026659
0.624316 0.5 -1.05 0.00808235
0.624316 0.5 1.05 0.0078712
1.13882 0.5 -0.442383 0.00228998
1.13882 0.5 0.442383 0.00228611
1.05695 0.5 0.6133 0.00285375
1.05695 0.5 -0.6133 0.00285645
1.16179 0.5 -0.401463 0.00215499
1.16179 0.5 0.401463 0.00215375
0.574156 0.5 -1.0875 0.00891453
0.574156 0.5 1.0875 0.0086919
1.17463 0.5 0.364477 0.00206974
1.17463 0.5 -0.364477 0.00207001
1.20942 0.5 -0.225851 0.00184774
1.20942 0.5 0.225851 0.00185289
1.23036 0.5 -1.32995e-17 0.00173087
1.2294 0.5 0.0634819 0.00173868
1.04168 0.5 -0.656246 0.00306796
1.04168 0.5 0.656246 0.00304162
1.23036 0.5 -0.0634819 0.00173415
1.18772 0.5 0.32807 0.0019955
1.18772 0.5 -0.32807 0.00199239
0.288069 0.5 -1.2 0.01356
0.288069 0.5 1.2 0.0132662
1.23036 0.5 -0.126964 0.00174545
1.23036 0.5 0.126964 0.00174938
0.075776 0.5 -1.2375 0.0163653
0.075776 0.5 1.2375 0.0161229
0.523432 0.5 -1.125 0.00989721
0.523432 0.5 1.125 0.00965806
1.0271 0.5 -0.69963 0.00329454
1.0271 0.5 0.69963 0.00324451
1.24274 0.5 0.0314313 0.00169403
1.24274 0.5 -0.0314313 0.00169387
1.20942 0.5 0.29038 0.00189095
1.20942 0.5 -0.29038 0.00188434
1.11376 0.5 -0.554494 0.00253691
1.11376 0.5 0.554494 0.00253385
1.23036 0.5 -0.190445 0.00176577
1.23036 0.5 0.190445 0.00177113
1.24274 0.5 -0.0942942 0.00169978
1.24274 0.5 0.0942942 0.00170353
1.13882 0.5 0.510442 0.00237592
1.13882 0.5 -0.510442 0.00239247
0.969689 0.5 -0.7875 0.00387112
0.969689 0.5 0.7875 0.00380469
1.00005 0.5 -0.749309 0.00360711
1.00005 0.5 0.749309 0.00354649
0.939201 0.5 -0.825 0.00414081
0.939201 0.5 0.825 0.00404638
0.90582 0.5 0.8625 0.00431042
0.90582 0.5 -0.8625 0.00443707
1.17463 0.5 -0.430746 0.00213736
1.17463 0.5 0.430746 0.00213907
1.10076 0.5 -0.594676 0.00263419
1.10076 0.5 0.594676 0.0026468
1.18772 0.5 -0.393684 0.00205226
1.18772 0.5 0.393684 0.00205449
1.24274 0.5 -0.157157 0.00171491
1.24274 0.5 0.157157 0.00172067
1.16179 0.5 -0.468373 0.0022403
1.16179 0.5 0.468373 0.00223168
0.467897 0.5 -1.1625 0.0109061
0.467897 0.5 1.1625 0.0106519
0.872064 0.5 -0.9 0.00486054
0.872064 0.5 0.9 0.00471761
1.25401 0.5 2.08167e-17 0.00166438
0.835106 0.5 0.9375 0.00514046
0.835106 0.5 -0.9375 0.00530151
1.25401 0.5 -0.0622994 0.00166702
1.25401 0.5 0.0622994 0.00166879
1.08112 0.5 -0.638498 0.00279495
1.08112 0.5 0.638498 0.0027798
1.23036 0.5 -0.253927 0.00179508
1.23036 0.5 0.253927 0.00180181
0.219992 0.5 1.2375 0.0141858
0.219992 0.5 -1.2375 0.0145047
1.25309 0.5 0.121964 0.00168182
1.05695 0.5 0.685452 0.0029656
1.05695 0.5 -0.685452 0.00301393
0.797732 0.5 0.975 0.005633
0.797732 0.5 -0.975 0.00581784
1.25401 0.5 -0.124599 0.00167701
1.20942 0.5 -0.354909 0.00193505
1.20942 0.5 0.354909 0.00193887
1.24274 0.5 -0.220019 0.00173835
1.24274 0.5 0.220019 0.00174566
0.756814 0.5 -1.0125 0.00636875
0.756813 0.5 1.0125 0.00615172
1.25401 0.5 -0.186898 0.00169548
1.25401 0.5 0.186898 0.00170207
0.411736 0.5 -1.2 0.0119196
0.411736 0.5 1.2 0.0116261
0 0.5 -1.26882 0.0116648
0 0.5 1.26882 0.0115077
0.0124865 0.5 1.26882 0.0122801
0.0124865 0.5 -1.26882 0.0124505
0.715434 0.5 -1.05 0.00701943
0.715434 0.5 1.05 0.00679094
1.23036 0.5 -0.31741 0.0018355
1.23036 0.5 0.31741 0.00184194
1.04168 0.5 -0.729162 0.0032539
1.04168 0.5 0.729162 0.00319228
1.18772 0.5 -0.459298 0.00213158
1.18772 0.5 0.459298 0.00212698
1.24274 0.5 -0.282882 0.00177071
1.24274 0.5 0.282882 0.0017799
0 0.5 -1.275 0.0116782
0 0.5 1.275 0.011522
1.27472 0.5 -0.0306319 0.00160026
1.27472 0.5 0.0306319 0.00160061
1.17463 0.5 0.497015 0.00222007
1.17463 0.5 -0.497015 0.00223437
1.11376 0.5 -0.623806 0.00264291
1.11376 0.5 0.623806 0.0026398
1.13882 0.5 -0.578501 0.00246932
1.13882 0.5 0.578501 0.00248563
0.67013 0.5 -1.0875 0.00770576
0.67013 0.5 1.0875 0.00745118
1.27472 0.5 -0.0918959 0.00160466
1.27472 0.5 0.0918959 0.0016209
1.25401 0.5 -0.249197 0.00172223
1.25401 0.5 0.249197 0.0017306
1.16179 0.5 -0.535284 0.00232321
1.16179 0.5 0.535284 0.0023257
1.20942 0.5 -0.419438 0.00199519
1.20942 0.5 0.419438 0.00200067
0 0.5 -1.28118 0.0116922
0 0.5 1.28118 0.0115367
0.0124865 0.5 1.28118 0.0123191
0.0124865 0.5 -1.28118 0.012488
1.27472 0.5 0.15316 0.00162445
1.27472 0.5 -0.15316 0.00161784
0.151149 0.5 -1.275 0.0155379