# nutMean  POINT_DATA 91129
# x  y  z  nutMean
0 0 0 5.05092e-06
0 0.00368111 0 1.84856e-05
0 0.00749587 0 7.34317e-05
0 0.0114491 0 0.000272061
0 0.0155459 0 0.000708456
0 0.0197915 0 0.00181162
0 0.0241911 0 0.00270593
0 0.0287506 0 0.00302063
0 0.0334755 0 0.00343291
0 0.038372 0 0.00372003
0 0.0434463 0 0.0039244
0 0.0487048 0 0.0040838
0 0.0541543 0 0.00422058
0 0.0598016 0 0.00434979
0 0.0656539 0 0.00448184
0 0.0717187 0 0.00461927
0.075776 0.00184055 0 9.01458e-06
0.075776 0.00558849 0 1.32239e-05
0.075776 0.00947248 -3.46945e-18 6.30113e-05
0.075776 0.0134975 -3.46945e-18 0.000297179
0.075776 0.0176687 3.46945e-18 0.000853164
0 0.0780037 0 0.00476025
0.075776 0.0219913 3.46945e-18 0.00172477
0.075776 0.0264709 3.46945e-18 0.00291891
0.075776 0.031113 -3.46945e-18 0.00440894
0.075776 0.0359237 -3.46945e-18 0.00614146
0 0.0845169 0 0.00490417
0.075776 0.0409092 0 0.00805089
0.075776 0.0460755 -3.46945e-18 0.0100675
0 0.0912666 0 0.00505119
0.075776 0.0514296 -3.46945e-18 0.0121223
0.075776 0.0569779 0 0.0141406
0 0.0982613 0 0.0052006
0.075776 0.0627278 0 0.0151581
0.075776 0.0686863 0 0.0156435
0 0.10551 0 0.00535085
0.075776 0.0748612 3.46945e-18 0.0161845
0.075776 0.0812603 -3.46945e-18 0.0167867
0 0.113022 0 0.00549986
0.075776 0.0878918 3.46945e-18 0.0174585
0 0.120806 0 0.00564707
0.075776 0.0947639 3.46945e-18 0.0182129
0.075776 0.101886 -3.46945e-18 0.0190757
0 0.128874 0 0.00580263
0.075776 0.109266 3.46945e-18 0.0200991
0 0.137234 0 0.00598658
0.075776 0.116914 3.46945e-18 0.0213591
0 0.145897 0 0.00620678
0.075776 0.12484 0 0.0229392
0.151552 0 0 0
0.151552 0.00368111 0 7.41916e-06
0.151552 0.00749587 0 2.53799e-05
0.151552 0.0114491 0 0.000112454
0.151552 0.0155459 0 0.000355258
0.151552 0.0197915 0 0.000809587
0.075776 0.133054 0 0.0248755
0.151552 0.0241911 0 0.00148971
0.151552 0.0287506 0 0.00239552
0 0.154876 0 0.00645347
0.151552 0.0334755 0 0.00350997
0.151552 0.038372 0 0.00480473
0.151552 0.0434463 0 0.00624556
0.151552 0.0487048 0 0.00779566
0.075776 0.141566 0 0.0268559
0.151552 0.0541543 0 0.00941593
0.151552 0.0598016 0 0.0108518
0 0.16418 0 0.0067184
0.151552 0.0656539 0 0.0119786
0.151552 0.0717187 0 0.013043
0.075776 0.150387 0 0.0284717
0.151552 0.0780037 0 0.0141771
0.151552 0.0845169 0 0.0153702
0 0.173822 0 0.00700007
0.075776 0.159528 0 0.029452
0.151552 0.0912666 0 0.0166037
0.151552 0.0982613 0 0.0178339
0 0.183814 0 0.00729687
0.151552 0.10551 0 0.018959
0.075776 0.169001 3.46945e-18 0.0296249
0.151552 0.113022 0 0.0199991
0.151552 0.120806 0 0.0210991
0 0.194169 0 0.00760569
0.075776 0.178818 3.46945e-18 0.0290336
0.151552 0.128874 0 0.0224448
0.075776 0.188992 3.46945e-18 0.0278967
0.151552 0.137234 0 0.0240013
0 0.2049 0 0.00792047
0.151552 0.145897 0 0.0255069
0.075776 0.199535 0 0.0264773
0 0.21602 0 0.00823305
0.151552 0.154876 0 0.0267695
0.219992 0.00184055 0 2.57126e-06
0.219992 0.00558849 0 5.43612e-06
0.219992 0.00947248 -3.46945e-18 2.18082e-05
0.219992 0.0134975 3.46945e-18 7.82241e-05
0.219992 0.0176687 0 0.0002263
0.219992 0.0219913 0 0.000507863
0.219993 0.0264709 -3.46945e-18 0.000935283
0.219992 0.031113 -3.46945e-18 0.00151407
0.219992 0.0359238 3.46945e-18 0.00224691
0.151552 0.16418 0 0.0276226
0.075776 0.21046 0 0.0249272
0.219992 0.0409092 3.46945e-18 0.00313209
0.219992 0.0460755 0 0.00416441
0.219993 0.0514296 -3.46945e-18 0.00533575
0.219992 0.0569779 0 0.0066364
0 0.227544 0 0.00858853
0.219992 0.0627277 3.46945e-18 0.00805592
0.219992 0.0686863 0 0.00958312
0.151552 0.173822 0 0.027995
0.219992 0.0748612 3.46945e-18 0.0112021
0.075776 0.221782 0 0.0233237
0.219992 0.0812603 3.46945e-18 0.0128899
0.219992 0.0878917 -3.46945e-18 0.0146151
0.151552 0.183814 0 0.0279361
7.47806e-17 0.239487 0 0.00904485
0.219992 0.0947639 3.46945e-18 0.0163176
0.219993 0.101886 3.46945e-18 0.0178541
0.075776 0.233516 0 0.0222922
0.219993 0.109266 0 0.0189035
0.151552 0.194169 0 0.0275644
0.219993 0.116914 0 0.0197469
0 0.251863 0 0.00957719
0.219993 0.12484 0 0.0205124
0.151552 0.2049 0 0.0269871
0.075776 0.245675 0 0.0218831
0.219992 0.133054 3.46945e-18 0.0216767
0.219992 0.141565 0 0.0228834
0.151552 0.21602 0 0.0262658
0 0.264688 0 0.0101515
0.219992 0.150387 3.46945e-18 0.0241476
0.075776 0.258275 3.46945e-18 0.0216574
0.219992 0.159528 -3.46945e-18 0.0253433
0.151552 0.227544 0 0.0255727
0.219992 0.169001 3.46945e-18 0.0263642
0 0.27798 0 0.0107689
0.075776 0.271334 3.46945e-18 0.0215689
0.151552 0.239487 3.70071e-18 0.0250744
0.219992 0.178818 3.46945e-18 0.0271619
0.288433 0 0 0
0.288433 0.00368111 0 3.06748e-06
0.288433 0.00749587 0 1.14095e-05
0.288433 0.0114491 0 3.96496e-05
0.288433 0.0155459 3.70071e-18 0.000114633
0.288433 0.0197915 0 0.000276609
0.288433 0.0241911 3.70071e-18 0.000551498
0.288433 0.0287506 0 0.000948945
0.219992 0.188991 0 0.0277332
0.288433 0.0334755 0 0.00147649
0.288433 0.038372 0 0.00213609
0.288433 0.0434463 0 0.00292678
7.47806e-17 0.291753 0 0.0114317
0.288433 0.0487048 0 0.00384514
0.288433 0.0541543 0 0.00488548
0.151552 0.251863 0 0.0246885
0.288433 0.0598016 3.70071e-18 0.00604016
0.075776 0.284866 0 0.0216242
0.288433 0.0656539 3.70071e-18 0.00729939
0.219992 0.199534 0 0.0280923
0.288433 0.0717187 0 0.00864988
0.288433 0.0780037 0 0.0100723
0.288433 0.0845169 0 0.0115084
0.288433 0.0912666 0 0.0126301
0.219992 0.21046 -3.46945e-18 0.0282545
0.288433 0.0982613 0 0.0134047
0.151552 0.264688 3.70071e-18 0.0243185
0 0.306027 0 0.0121691
0.288433 0.10551 0 0.0140574
0.075776 0.29889 3.46945e-18 0.021808
0.288433 0.113022 0 0.0146194
0.219993 0.221782 0 0.0282297
0.288433 0.120806 0 0.0151343
0.288433 0.128874 0 0.0156852
0.151552 0.27798 0 0.0240649
0.288433 0.137234 0 0.0163089
0 0.320819 0 0.0131635
0.219992 0.233515 -3.46945e-18 0.0280217
0.075776 0.313423 -3.46945e-18 0.0222485
0.288433 0.145897 0 0.0169621
0.288433 0.154876 0 0.0176252
0.151552 0.291753 0 0.0239038
0.219993 0.245675 0 0.0276433
0.288433 0.16418 0 0.0182343
0 0.336148 0 0.0146702
0.288433 0.173822 0 0.0187465
0.075776 0.328484 -3.46945e-18 0.0237686
0.219993 0.258275 -3.46945e-18 0.0271233
0.151552 0.306027 0 0.0237424
0.288433 0.183814 0 0.0191469
0.288433 0.194169 0 0.0194375
0.219992 0.271334 3.46945e-18 0.0265104
0.350249 0.00184056 -3.46945e-18 9.13001e-07
0.350249 0.00558849 0 3.48721e-06
0.350249 0.00947248 3.46945e-18 1.5232e-05
0.350249 0.0134975 0 4.4859e-05
0.350249 0.0176687 0 0.000114681
0.350249 0.0219913 0 0.000270896
0.350249 0.0264708 3.46945e-18 0.000516954
0.350249 0.031113 0 0.000870011
0 0.352034 0 0.0158697
0.350249 0.0359238 0 0.00133437
0.075776 0.344091 0 0.0268248
0.350249 0.0409091 0 0.00191232
0.350249 0.0460756 3.46945e-18 0.00260434
0.288433 0.2049 0 0.0196251
0.350249 0.0514296 0 0.00340902
0.151552 0.320819 0 0.0238314
0.350249 0.0569779 0 0.00432248
0.350249 0.0627277 3.46945e-18 0.00533772
0.350249 0.0686863 3.46945e-18 0.00644412
0.350249 0.0748612 3.46945e-18 0.00762618
0.350249 0.0812603 0 0.00886106
0.219992 0.284867 0 0.0261788
0.288433 0.21602 0 0.019715
0.350249 0.0878917 0 0.00999703
0.350249 0.094764 0 0.0100072
0.350249 0.101886 0 0.00998027
0.350249 0.109266 0 0.0101257
0.288433 0.227544 0 0.0197092
0.075776 0.360265 3.46945e-18 0.0264142
0 0.368496 0 0.0158357
0.151552 0.336148 0 0.0245233
0.350249 0.116914 3.46945e-18 0.0103918
0.219992 0.29889 0 0.0256698
0.370854 0.0241911 1.54074e-33 0.00040081
0.350249 0.12484 0 0.0106188
0.350249 0.133054 0 0.0107266
0.288433 0.239487 -9.25154e-19 0.0196099
0.350249 0.141566 3.46945e-18 0.0108245
0.350249 0.150387 3.46945e-18 0.0109539
0.288433 0.251863 0 0.0194253
0.219992 0.313423 0 0.0249813
0.151552 0.352034 0 0.0247369
0.075776 0.377027 0 0.0238791
0.350249 0.159528 0 0.0110996
0 0.385557 0 0.0151962
0.350249 0.169001 0 0.0112466
0.288433 0.264688 0 0.0191711
0.350249 0.178818 0 0.0113875
0.219992 0.328484 0 0.0242015
0.350249 0.188992 0 0.0115205
0.151552 0.368496 0 0.0235581
0.288433 0.27798 3.70071e-18 0.0189466
0.075776 0.394397 0 0.02202
0.350249 0.199535 0 0.0116448
7.47806e-17 0.403236 0 0.0148591
0.219992 0.344091 0 0.0234164
0.350249 0.21046 -3.46945e-18 0.0117597
0.288433 0.291753 0 0.0187323
0.412065 9.08189e-19 3.08149e-33 2.44132e-22
0.412065 0.00368111 -2.31298e-18 2.07533e-06
0.412065 0.00749587 -2.31298e-18 9.24986e-06
0.412065 0.0114491 -2.31298e-18 2.77422e-05
0.412065 0.0155459 -2.31298e-18 6.89798e-05
0.412065 0.0197915 0 0.000159712
0.412065 0.0241911 -3.08149e-33 0.000325466
0.412065 0.0264709 0 0.000451773
0.412065 0.0287506 -2.31298e-18 0.00057808
0.412065 0.0334755 -2.31298e-18 0.00092597
0.412065 0.038372 -2.31298e-18 0.00137485
0.151552 0.385557 0 0.0219773
0.412065 0.0434463 0 0.00192622
0.350249 0.221782 0 0.0118635
0.412065 0.0487048 0 0.00257972
0.412065 0.0541543 -3.08149e-33 0.00333274
0.412065 0.0569779 0 0.00375624
0.412065 0.0598016 -2.31298e-18 0.00417973
0.412065 0.0656539 -2.31298e-18 0.00511141
0.412065 0.0717187 -2.31298e-18 0.00611373
0.075776 0.412396 -3.46945e-18 0.021583
0.412065 0.0780037 -2.31298e-18 0.00708866
0.288433 0.306027 0 0.0184196
0.412065 0.0845169 -2.31298e-18 0.00785449
0.350249 0.233516 3.46945e-18 0.0119527
0 0.421557 0 0.0149029
0.412065 0.0912666 -2.31298e-18 0.00818459
0.219992 0.360265 3.46945e-18 0.022579
0.412065 0.0982613 0 0.00821135
0.412065 0.10551 0 0.00826433
0.412065 0.113022 -2.31298e-18 0.00839294
0.350249 0.245675 0 0.0120239
0.412065 0.120806 0 0.00854357
0.151552 0.403236 0 0.0209045
0.288433 0.320819 0 0.0180314
0.412065 0.128874 -2.31298e-18 0.00865593
0.412065 0.137234 0 0.00873763
0.350249 0.258275 -3.46945e-18 0.0120731
0.219992 0.377026 0 0.0216016
0.412065 0.145897 -2.31298e-18 0.00882571
0.075776 0.431051 0 0.0215866
0.412065 0.154876 -2.31298e-18 0.00892545
0 0.440544 0 0.0150373
0.288433 0.336148 0 0.0176123
0.350249 0.271334 0 0.0120938
0.412065 0.16418 -2.31298e-18 0.00902891
0.412065 0.173822 -2.31298e-18 0.0091306
0.151552 0.421557 0 0.0203409
0.412065 0.183814 -2.31298e-18 0.0092281
0.350249 0.284867 3.46945e-18 0.012083
0.219992 0.394397 0 0.0205561
0.288433 0.352034 3.70071e-18 0.0171727
0.412065 0.194169 0 0.00932066
0.075776 0.450382 0 0.0216334
0.412065 0.2049 -2.31298e-18 0.00940781
0 0.46022 0 0.0151839
0.350249 0.29889 3.46945e-18 0.0120464
0.412065 0.21602 0 0.00948877
0.151552 0.440544 0 0.0199721
0.219993 0.412396 3.46945e-18 0.0195948
0.467897 0.00184056 -3.46945e-18 5.92008e-07
0.467897 0.00558849 0 3.32657e-06
0.288433 0.368496 0 0.0166771
0.467897 0.00947248 0 1.49693e-05
0.467897 0.0134975 0 3.62304e-05
0.467897 0.0176687 3.46945e-18 8.16545e-05
0.467897 0.0219913 -3.46945e-18 0.000176232
0.467897 0.0264709 3.46945e-18 0.000347334
0.467897 0.0311131 3.46945e-18 0.000594118
0.467897 0.0359238 -3.46945e-18 0.000929956
0.467897 0.038372 0 0.0011888
0.467897 0.0409092 3.46945e-18 0.0013574
0.350249 0.313423 0 0.0119873
0.467897 0.0460755 0 0.00187713
0.467897 0.0514296 3.46945e-18 0.00248792
0.412065 0.227544 -2.31298e-18 0.00956207
0.467897 0.0569779 0 0.00318586
0.467897 0.0627277 -3.46945e-18 0.00396352
0.467897 0.0686863 3.46945e-18 0.00480891
0.467897 0.0748612 0 0.00570413
0.467897 0.0812603 0 0.00632418
0.467897 0.0878918 3.46945e-18 0.00645497
0.075776 0.470415 3.46945e-18 0.0217647
0.412065 0.239487 -2.31298e-18 0.00962587
0.467897 0.0947639 -3.46945e-18 0.00653221
0.467897 0.101886 3.46945e-18 0.00657381
0.350249 0.328483 0 0.011911
0.467897 0.109266 0 0.00662643
0 0.48061 0 0.0153201
0.288433 0.385557 0 0.0161177
0.467897 0.116914 0 0.00668739
0.412065 0.251863 -2.31298e-18 0.00967824
0.219992 0.431051 0 0.018788
0.467897 0.12484 0 0.00674921
0.151552 0.46022 0 0.0196987
0.467897 0.133054 3.46945e-18 0.00680962
0.467897 0.141566 3.46945e-18 0.00687316
0.412065 0.264688 -2.31298e-18 0.00971674
0.350249 0.344091 -3.46945e-18 0.0118224
0.467897 0.150387 3.46945e-18 0.00693813
0.467897 0.154876 0 0.00747174
0.467897 0.159528 3.46945e-18 0.0070022
0.288433 0.403236 0 0.0155492
0.075776 0.491175 0 0.0218258
0.412065 0.27798 -2.31298e-18 0.00973959
0.467897 0.169001 0 0.00706515
0.467897 0.178818 3.46945e-18 0.00712676
0.219992 0.450382 0 0.0181289
6.73026e-17 0.501741 3.70071e-18 0.0153932
0.350249 0.360265 0 0.0117201
0.151552 0.48061 0 0.0194702
0.467897 0.188991 0 0.00718667
0.412065 0.291753 0 0.00974738
0.467897 0.199535 0 0.00724465
0.288433 0.421557 0 0.0150323
0.467897 0.21046 0 0.00730041
0.412065 0.306027 0 0.00974133
0.350249 0.377027 0 0.0115943
0.467897 0.221782 3.46945e-18 0.00735357
0.075776 0.51269 0 0.0217763
0.219993 0.470415 3.46945e-18 0.0175711
0.467897 0.227544 0 0.00796128
0.412065 0.320819 -2.31298e-18 0.00972262
0.467897 0.233515 0 0.0074037
6.73026e-17 0.523639 3.70071e-18 0.0153976
0.523729 0 0 0
0.523729 0.00368111 0 1.89732e-06
0.523729 0.00749587 -2.31298e-18 9.5166e-06
0.523729 0.0114491 0 2.58436e-05
0.523729 0.0155459 0 5.55513e-05
0.523729 0.0197915 -2.31298e-18 0.000113495
0.151552 0.501741 0 0.0192239
0.523729 0.0241911 0 0.000227181
0.523729 0.0287506 0 0.000409643
0.523729 0.0334755 0 0.000664675
0.523729 0.038372 -3.08149e-33 0.00100276
0.523729 0.0434463 0 0.0014256
0.523729 0.0487048 0 0.00193272
0.523729 0.0541543 0 0.00252129
0.288433 0.440544 0 0.0145909
0.523729 0.0598016 0 0.00318529
0.350249 0.394397 -3.46945e-18 0.011439
0.523729 0.0656539 0 0.0039146
0.467897 0.245675 0 0.00745047
0.523729 0.0717187 0 0.00468159
0.523729 0.0780037 0 0.00525033
0.523729 0.0845169 0 0.00548167
0.523729 0.0912666 0 0.00556865
0.412065 0.336148 0 0.00969305
0.523729 0.0982613 0 0.00563184
0.523729 0.10551 -2.31298e-18 0.00568602
0.467897 0.258275 -3.46945e-18 0.00749369
0.523729 0.113022 0 0.00574268
0.523729 0.120806 -3.08149e-33 0.00579977
0.219993 0.491176 0 0.0170713
0.523729 0.12484 0 0.00582742
0.523729 0.128874 -2.31298e-18 0.00585508
0.075776 0.534986 0 0.0216461
0.467897 0.271334 3.46945e-18 0.00753386
0.350249 0.412396 -3.46945e-18 0.0112634
0.523729 0.137234 0 0.00590949
0.412065 0.352034 -2.31298e-18 0.00965317
0.288433 0.46022 0 0.0142185
0.523729 0.145897 0 0.00596406
0.151552 0.523639 0 0.0189521
0.523729 0.154876 -3.08149e-33 0.00601803
0 0.546332 0 0.0153495
0.523729 0.159528 0 0.00604447
0.467897 0.284867 -3.46945e-18 0.00757246
0.523729 0.16418 -2.31298e-18 0.0060709
0.523729 0.173822 0 0.00612265
0.412065 0.368496 0 0.00960026
0.523729 0.183814 0 0.00617317
0.467897 0.29889 0 0.00760786
0.350249 0.431051 -3.46945e-18 0.0110854
0.219992 0.51269 0 0.0166121
0.523729 0.194169 0 0.00622233
0.288433 0.48061 0 0.0138954
0.523729 0.2049 0 0.00627004
0.467897 0.313423 3.46945e-18 0.00763798
0.075776 0.558091 0 0.0214621
0.412065 0.385557 0 0.00953027
0.523729 0.21602 -3.08149e-33 0.00631614
0.151552 0.546332 0 0.0186691
0 0.569849 0 0.0152614
0.350249 0.450382 3.46945e-18 0.0109209
0.523729 0.227544 -3.08149e-33 0.00636048
0.467897 0.328483 0 0.00766138
0.523729 0.231525 1.54074e-33 0.00637463
0.574156 0.00184056 0 4.25616e-07
0.574156 0.00558849 0 3.2533e-06
0.574157 0.00947248 0 1.64693e-05
0.574156 0.0134975 -3.46945e-18 3.56743e-05
0.574156 0.0176687 -3.46945e-18 6.9092e-05
0.574156 0.0219913 0 0.000129029
0.574156 0.0264708 -3.46945e-18 0.00026067
0.574156 0.031113 0 0.000444468
0.574156 0.0359238 -3.46945e-18 0.000702936
0.574157 0.0409092 0 0.00103924
0.523729 0.239487 3.70071e-18 0.00640292
0.574156 0.0460755 -3.46945e-18 0.00145378
0.574156 0.0514295 0 0.00194483
0.412065 0.403236 0 0.00944374
0.574157 0.0569779 0 0.00250793
0.574156 0.0627277 0 0.00313491
0.574156 0.0686863 0 0.00381288
0.219992 0.534986 0 0.016191
0.288433 0.501741 0 0.0136051
0.574156 0.0748612 3.46945e-18 0.00447582
0.574156 0.0812603 0 0.00459724
0.467897 0.344091 0 0.00767709
0.574156 0.0878917 3.46945e-18 0.00466916
0.523729 0.251863 0 0.0064434
0.574157 0.0947639 0 0.00473936
0.574156 0.101886 0 0.00480255
0.574156 0.109266 0 0.0048609
0.574156 0.116914 0 0.00491563
0.412065 0.416977 -6.16298e-33 0.00937174
0.350249 0.470415 0 0.0107781
0.523729 0.264688 0 0.00648208
0.075776 0.582034 0 0.0212435
0.574156 0.12484 0 0.00496698
0.574156 0.133054 3.46945e-18 0.00501537
0.412065 0.421557 -2.31298e-18 0.00934774
0.151552 0.569849 0 0.0183868
0.467897 0.360265 -3.46945e-18 0.00768491
0.574157 0.141566 -3.46945e-18 0.00506165
0.523729 0.27798 0 0.00651951
0.574156 0.150386 3.46945e-18 0.00510637
0 0.594219 0 0.0151433
0.574156 0.159528 -3.46945e-18 0.00514982
0.574156 0.16418 0 0.00534449
0.288433 0.523639 1.2326e-32 0.0133406
0.574157 0.169001 0 0.00519219
0.523729 0.291753 0 0.00655555
0.219993 0.558091 3.46945e-18 0.0158125
0.467897 0.377026 0 0.00768478
0.574156 0.178818 3.46945e-18 0.00523357
0.412065 0.440544 -2.31298e-18 0.00925203
0.350249 0.491175 0 0.0106557
0.574156 0.188992 3.46945e-18 0.00527402
0.523729 0.306027 -3.08149e-33 0.00658896
0.574157 0.199535 0 0.00531357
0.574157 0.21046 0 0.00535224
0.075776 0.606847 0 0.0210029
0.467897 0.394397 0 0.00767602
0.151552 0.594219 0 0.018112
0.523729 0.320819 0 0.00661846
0.574157 0.221782 -3.46945e-18 0.00539009
0.412065 0.46022 3.08149e-33 0.00916469
0.288433 0.546332 0 0.0131011
0 0.619475 0 0.0150027
0.574156 0.233515 3.46945e-18 0.00542719
0.350249 0.51269 3.46945e-18 0.0105481
0.219992 0.582034 3.46945e-18 0.015476
0.523729 0.336148 0 0.00664309
0.467897 0.412396 0 0.00765847
0.574156 0.245675 0 0.00546364
0.624584 0 0 0
0.624584 0.00368111 0 1.80643e-06
0.624584 0.00749587 0 1.0398e-05
0.624584 0.0114491 0 2.73305e-05
0.624584 0.0155459 0 5.19742e-05
0.624584 0.0197915 0 9.27262e-05
0.624584 0.0241911 -2.31298e-18 0.000173907
0.624584 0.0287506 0 0.000313247
0.624584 0.0334755 0 0.000512982
0.624584 0.038372 0 0.000780737
0.624584 0.0434463 -2.31298e-18 0.00112153
0.624584 0.0487048 0 0.00153468
0.624584 0.0541543 0 0.00201682
0.624584 0.0598016 0 0.00256136
0.624584 0.0656539 0 0.00315736
0.624584 0.0717187 0 0.00371602
0.624584 0.0780037 0 0.00401749
0.574157 0.258276 3.46945e-18 0.00549961
0.624584 0.0845169 0 0.00410627
0.523729 0.352034 0 0.0066623
0.624584 0.0912666 0 0.00417749
0.624584 0.0982613 0 0.0042425
0.412065 0.48061 3.08149e-33 0.00908928
0.624584 0.10551 0 0.00430095
0.624584 0.113022 -2.31298e-18 0.0043548
0.574156 0.271334 0 0.00553529
0.624584 0.120806 0 0.00440499
0.467897 0.431051 0 0.00763422
0.075776 0.632561 -3.46945e-18 0.0207484
0.624584 0.128874 0 0.00445196
0.151552 0.619475 0 0.0178479
0.288433 0.569849 0 0.0128871
0.350249 0.534985 0 0.0104521
0.624584 0.137234 -2.31298e-18 0.00449625
0.523729 0.368496 0 0.00667597
0.574156 0.284866 -3.46945e-18 0.00557073
0.624584 0.145897 0 0.00453843
0.467897 0.440544 0 0.00796363
0.624584 0.154876 0 0.00457894
0.219992 0.606847 -3.46945e-18 0.0151786
0 0.645647 0 0.0148454
0.624584 0.16418 -3.08149e-33 0.00461808
0.574156 0.29889 -3.46945e-18 0.00560545
0.624584 0.173822 0 0.00465605
0.412065 0.501741 1.54074e-33 0.00902509
0.467897 0.450382 -3.46945e-18 0.00760748
0.523729 0.385557 0 0.00668392
0.624584 0.183814 0 0.00469299
0.624584 0.194169 0 0.00472902
0.574156 0.313423 0 0.00563865
0.624584 0.2049 0 0.00476421
0.350249 0.558091 3.46945e-18 0.0103659
0.288433 0.594219 0 0.0126977
0.624584 0.21602 0 0.00479867
0.523729 0.403236 0 0.00668587
0.574156 0.328483 -3.46945e-18 0.00566948
0.151552 0.645647 0 0.0175958
0.467897 0.470415 3.46945e-18 0.00758276
0.075776 0.659208 0 0.0204854
0.624584 0.227544 0 0.00483248
0.412065 0.523639 0 0.00897019
0.523729 0.41545 3.08149e-33 0.00668352
0.624584 0.239487 3.70071e-18 0.00486577
0.574156 0.344091 0 0.00569725
0.219992 0.632561 0 0.0149165
0.67013 0.00184055 0 3.08633e-07
0.67013 0.00558849 0 3.2423e-06
0.67013 0.00947248 0 1.85619e-05
0.67013 0.0134975 0 3.84635e-05
0.67013 0.0176687 -3.46945e-18 6.47181e-05
0.67013 0.0219913 0 0.000108842
0.67013 0.0264708 3.46945e-18 0.000199651
0.67013 0.0311131 0 0.000353012
0.67013 0.0359237 0 0.000558944
0.67013 0.0409092 -3.46945e-18 0.000832883
0.67013 0.0460755 0 0.00117552
0.67013 0.0514296 3.46945e-18 0.00158471
0.523729 0.421557 -2.31298e-18 0.00668235
0.67013 0.056978 0 0.00205546
0 0.67277 0 0.0146757
0.67013 0.0627277 0 0.00257894
0.624584 0.251863 0 0.00489867
0.67013 0.0686863 0 0.00314141
0.67013 0.0748612 3.46945e-18 0.00348629
0.67013 0.0812603 0 0.00357397
0.67013 0.0878917 0 0.003649
0.67013 0.0947639 3.46945e-18 0.00371669
0.574156 0.360265 0 0.00572171
0.67013 0.101886 0 0.00377585
0.523729 0.431051 0 0.00667879
0.624584 0.264688 0 0.00493131
0.467897 0.491175 0 0.00756289
0.67013 0.109266 3.46945e-18 0.00382924
0.350249 0.582034 0 0.0102895
0.67013 0.116914 0 0.00387847
0.67013 0.12484 0 0.00392423
0.67013 0.133054 0 0.00396695
0.288433 0.619475 0 0.012532
0.624584 0.27798 -3.08149e-33 0.00496376
0.412065 0.546332 1.54074e-33 0.0089231
0.523729 0.440544 -3.08149e-33 0.00667523
0.67013 0.141566 3.46945e-18 0.00400707
0.685312 0.0241911 -7.70372e-34 0.000151747
0.685312 0.0434463 -7.70372e-34 0.000984072
0.67013 0.150387 0 0.00404507
0.574156 0.377026 -3.46945e-18 0.00574284
0.67013 0.159528 0 0.00408135
0.624584 0.291753 0 0.00499588
0.151552 0.67277 0 0.0173558
0.075776 0.686823 0 0.0202179
0.67013 0.169001 0 0.00411623
0.67013 0.178818 0 0.00414992
0.467897 0.51269 0 0.00754877
0.685312 0.113022 -7.70372e-34 0.00378658
0.219992 0.659208 0 0.0146858
0.624584 0.306027 0 0.00502724
0.67013 0.188991 0 0.00418263
0.574156 0.394397 3.46945e-18 0.0057606
0.523729 0.46022 0 0.00666733
0.685312 0.137234 -7.70372e-34 0.00391968
0.67013 0.199535 -3.46945e-18 0.00421448
0.350249 0.606847 0 0.0102236
0 0.700877 0 0.0144975
0.624584 0.320819 0 0.00505729
0.67013 0.21046 0 0.00424562
0.412065 0.569849 -2.31298e-18 0.00888315
0.67013 0.221782 -3.46945e-18 0.0042762
0.574157 0.412396 0 0.00577486
0.288433 0.645647 0 0.012388
0.624584 0.336148 -3.08149e-33 0.00508549
0.67013 0.233515 3.46945e-18 0.00430633
0.467897 0.534986 0 0.00754014
0.523729 0.48061 0 0.00666132
0.624584 0.344091 0 0.00509847
0.67013 0.245675 0 0.00433618
0.715676 4.54095e-19 0 4.29414e-23
0.715676 0.00368111 0 1.76128e-06
0.715676 0.00749587 0 1.15322e-05
0.715676 0.0114491 0 3.02621e-05
0.715676 0.0155459 0 5.29071e-05
0.715676 0.0197915 0 8.43092e-05
0.715676 0.0241911 0 0.000140667
0.715676 0.0287506 0 0.000249748
0.715676 0.0334755 0 0.000414664
0.715676 0.038372 0 0.000632683
0.624584 0.352034 -2.31298e-18 0.00511146
0.715676 0.0434463 0 0.000915341
0.151552 0.700877 0 0.0171277
0.715676 0.0487048 0 0.00126209
0.715676 0.0541543 0 0.00166928
0.574156 0.43105 0 0.00578591
0.715676 0.0598016 0 0.00212984
0.67013 0.258275 0 0.00436586
0.715676 0.0656539 0 0.00262885
0.715676 0.0717187 0 0.00301297
0.075776 0.715441 0 0.0199492
0.715676 0.0780037 0 0.00318379
0.715676 0.0845169 0 0.00326456
0.219992 0.686824 0 0.0144824
0.715676 0.0912666 0 0.00333527
0.715676 0.0982613 0 0.00339736
0.67013 0.271334 -3.46945e-18 0.00439543
0.350249 0.632561 -3.46945e-18 0.0101688
0.412065 0.594219 3.08149e-33 0.00885049
0.715676 0.10551 0 0.00345241
0.715676 0.113022 0 0.00350247
0.624584 0.368496 0 0.00513505
0.523729 0.501741 0 0.00665888
0.715676 0.120806 0 0.00354861
0.715676 0.128874 0 0.00359143
0.67013 0.284867 0 0.00442486
0.467897 0.558091 3.46945e-18 0.00753628
0.715676 0.137234 0 0.00363139
0.574156 0.450382 0 0.00579483
0 0.730005 0 0.0143142
0.715676 0.145897 0 0.00366896
0.288433 0.67277 0 0.0122639
0.715676 0.154876 0 0.00370454
0.67013 0.29889 0 0.00445403
0.624584 0.385557 0 0.00515623
0.715676 0.16418 -9.25187e-19 0.00373849
0.715676 0.173822 0 0.00377106
0.715676 0.183814 0 0.00380249
0.67013 0.313423 0 0.00448265
0.523729 0.523639 0 0.00666064
0.715676 0.194169 0 0.00383295
0.574156 0.470415 3.46945e-18 0.0058033
0.624584 0.403236 0 0.00517494
0.743101 0.0241911 -7.70372e-34 0.000133993
0.412065 0.619475 3.08149e-33 0.0088256
0.715676 0.2049 0 0.0038626
0.151552 0.730005 0 0.0169116
0.67013 0.328484 3.46945e-18 0.00451038
0.350249 0.659208 0 0.0101252
0.467897 0.582034 0 0.0075369
0.715676 0.21602 0 0.00389158
0.219992 0.715441 0 0.014303
0.075776 0.745097 -3.46945e-18 0.0196822
0.715676 0.227544 0 0.00392003
0.67013 0.344091 0 0.00453688
0.624584 0.421557 0 0.00519124
0.743101 0.128874 -7.70372e-34 0.00339771
0.715676 0.239487 3.70071e-18 0.00394807
0.574156 0.491175 0 0.0058131
0.756814 0.00184055 0 2.19249e-07
0.523729 0.546332 0 0.00666656
0.756813 0.00558849 0 3.27666e-06
0.756813 0.00947248 0 2.09774e-05
0.756814 0.0134975 -3.46945e-18 4.28492e-05
0.756814 0.0155459 0 5.45426e-05
0.756814 0.0176687 0 6.54501e-05
0.756814 0.0219913 0 9.85071e-05
0.756814 0.0264709 0 0.000157205
0.756814 0.031113 -3.46945e-18 0.000292132
0.756813 0.0359238 -3.46945e-18 0.000459239
0.288433 0.700877 0 0.0121577
0.756814 0.0409092 -3.46945e-18 0.000686811
0.756813 0.0460755 3.46945e-18 0.000976196
0.756813 0.0514296 0 0.00132527
0.715676 0.251863 0 0.00397584
0.756813 0.0569779 0 0.00172872
0.756814 0.0627277 -3.46945e-18 0.00217741
0.756814 0.0686863 -3.46945e-18 0.00264375
0 0.76019 0 0.0141288
0.756814 0.0748612 0 0.00281435
0.67013 0.360265 3.46945e-18 0.00456195
0.756814 0.0812603 -3.46945e-18 0.00289958
0.756814 0.0878917 -3.46945e-18 0.00297479
0.756814 0.0947639 -3.46945e-18 0.00303973
0.715676 0.264688 0 0.00400339
0.756813 0.101886 0 0.00309645
0.624584 0.440544 0 0.00520559
0.756813 0.109266 3.46945e-18 0.00314751
0.756813 0.116914 3.46945e-18 0.00319419
0.412065 0.645647 0 0.0088089
0.467897 0.606847 0 0.00754227
0.756814 0.120806 0 0.00325878
0.756813 0.12484 0 0.00323722
0.715676 0.27798 0 0.00403076
0.756814 0.133054 -3.46945e-18 0.00327713
0.67013 0.377026 -3.46945e-18 0.00458549
0.756814 0.137234 0 0.00334003
0.574156 0.51269 0 0.00582546
0.756813 0.141566 3.46945e-18 0.00331439
0.685312 0.352034 -7.70372e-34 0.00447766
0.743101 0.2049 -7.70372e-34 0.00366327
0.350249 0.686824 0 0.0100925
0.756814 0.150387 0 0.00334943
0.756814 0.154876 0 0.00341141
0.715676 0.291753 0 0.00405792
0.756814 0.159528 -3.46945e-18 0.0033826
0.523729 0.569849 0 0.0066764
0.72743 0.264688 0 0.00391579
0.756814 0.16418 0 0.00344434
0.151552 0.76019 0 0.0167074
0.756813 0.169001 3.46945e-18 0.00341421
0.624584 0.46022 0 0.00521893
0.219993 0.745097 0 0.0141448
0.67013 0.394396 0 0.00460747
0.756813 0.178818 -3.46945e-18 0.00344451
0.715676 0.306027 0 0.00408471
0.075776 0.775831 0 0.0194195
0.756813 0.188991 0 0.00347371
0.756814 0.199535 0 0.00350198
0.715676 0.320819 0 0.00411094
0.574156 0.534985 0 0.00584101
0.288433 0.730005 0 0.012068
0.756813 0.21046 0 0.00352948
0.467897 0.632561 0 0.00755285
0.67013 0.412396 -3.46945e-18 0.00462788
0.624584 0.48061 -3.08149e-33 0.00523251
0.756814 0.221782 0 0.00355636
0.412065 0.67277 3.08149e-33 0.00880061
0.715676 0.336148 0 0.00413635
0 0.791472 0 0.0139439
0.756813 0.233516 3.46945e-18 0.00358274
0.523729 0.594219 0 0.00669021
0.624584 0.487654 1.54074e-33 0.00523752
0.756814 0.245675 3.46945e-18 0.00360875
0.350249 0.715441 3.46945e-18 0.0100706
0.67013 0.43105 0 0.00464683
0.715676 0.352034 -9.25187e-19 0.00416075
0.797951 9.08189e-19 -3.08149e-33 6.12843e-23
0.797951 0.00368111 2.31298e-18 1.74477e-06
0.797951 0.00749587 2.31298e-18 1.28126e-05
0.797951 0.0114491 2.31298e-18 3.38589e-05
0.797951 0.0141803 7.70372e-34 4.87384e-05
0.797951 0.0155459 0 5.61781e-05
0.797951 0.0169611 7.70372e-34 6.45192e-05
0.797951 0.0197915 2.31298e-18 8.12013e-05
0.797951 0.0219913 0 0.000100923
0.797951 0.0241911 3.08149e-33 0.000120644
0.797951 0.0264709 0 0.000162037
0.797951 0.0287506 -3.08149e-33 0.000203431
0.797951 0.0334755 2.31298e-18 0.00034179
0.797951 0.038372 2.31298e-18 0.000526988
0.797951 0.0434463 2.31298e-18 0.000765353
0.797951 0.0487048 0 0.00106181
0.756813 0.258275 -3.46945e-18 0.00363446
0.797951 0.0541543 2.31298e-18 0.00141273
0.797951 0.0598016 2.31298e-18 0.00181066
0.797951 0.0656539 2.31298e-18 0.00222265
0.574156 0.55809 0 0.00585983
0.624584 0.501741 0 0.00524753
0.797951 0.0717187 2.31298e-18 0.00249585
0.797951 0.0780037 -3.08149e-33 0.00260953
0.797951 0.0845169 2.31298e-18 0.00269025
0.797951 0.0912666 -3.08149e-33 0.00276046
0.797951 0.0982613 2.31298e-18 0.00282132
0.756813 0.271334 0 0.00365992
0.797951 0.10551 2.31298e-18 0.00287528
0.715676 0.368496 0 0.00418401
0.151552 0.791472 0 0.0165155
0.797951 0.113022 2.31298e-18 0.00292417
0.219992 0.775831 3.46945e-18 0.0140059
0.797951 0.118211 7.70372e-34 0.00295402
0.770526 0.239487 1.54074e-33 0.0035436
0.797951 0.120806 0 0.00296895
0.67013 0.450382 3.46945e-18 0.00466467
0.797951 0.128874 3.08149e-33 0.00301028
0.467897 0.659208 0 0.00756913
0.756813 0.284866 -3.46945e-18 0.00368515
0.743101 0.320819 -7.70372e-34 0.00390179
0.797951 0.137234 0 0.00304867
0.797951 0.141566 0 0.0030666
0.797951 0.145897 -9.25187e-19 0.00308453
0.523729 0.619475 0 0.00670827
0.075776 0.807681 0 0.0191637
0.797951 0.150387 0 0.0031014
0.797951 0.154876 0 0.00311827
0.715676 0.385557 0 0.00420605
0.412065 0.700877 3.08149e-33 0.00880079
0.288433 0.76019 0 0.0119933
0.756813 0.29889 0 0.00371012
0.797951 0.16418 0 0.00315019
0.624584 0.523639 0 0.00526484
0.797951 0.167394 7.70372e-34 0.00316032
0.797951 0.173822 2.31298e-18 0.00318057
0.574156 0.582034 0 0.00588193
0.67013 0.470415 0 0.00468211
0.797951 0.183814 2.31298e-18 0.00320964
0.756813 0.313423 -3.46945e-18 0.00373473
0.797951 0.194169 -9.25187e-19 0.00323759
0.715676 0.403236 0 0.00422689
0.151552 0.807681 0 0.0164259
0.797951 0.197746 -7.70372e-34 0.00324659
0.350249 0.745097 0 0.010059
0.797951 0.2049 3.08149e-33 0.0032646
0 0.823889 0 0.0137621
0.756813 0.328483 -3.46945e-18 0.00375884
0.797951 0.21046 0 0.0032777
0.797951 0.21602 -3.08149e-33 0.0032908
0.797951 0.223703 7.70372e-34 0.00330783
0.797951 0.227544 9.25187e-19 0.00331635
0.624584 0.546332 0 0.00528487
0.715676 0.421557 0 0.00424657
0.67013 0.491176 -3.46945e-18 0.00470007
0.797951 0.231525 7.70372e-34 0.00332469
0.467897 0.686824 -3.46945e-18 0.0075915
0.523729 0.645647 0 0.006731
0.756813 0.344091 -3.46945e-18 0.0037823
0.822721 0.120806 7.70372e-34 0.00283001
0.797951 0.239487 -3.08149e-33 0.00334136
0.822721 0.137234 7.70372e-34 0.00290965
0.835106 0.00184056 0 1.52054e-07
0.835106 0.00558849 0 3.33156e-06
0.835106 0.00947248 0 2.35948e-05
0.835106 0.0134975 0 4.78144e-05
0.835107 0.0176687 0 6.83906e-05
0.835106 0.0219913 -3.46945e-18 9.2539e-05