# pMean  POINT_DATA 91129
# x  y  z  pMean
0 0 0 0.244777
0 0.00368111 0 0.244443
0 0.00749587 0 0.243715
0 0.0114491 0 0.24299
0 0.0155459 0 0.242336
0 0.0197915 0 0.241646
0 0.0241911 0 0.240865
0 0.0287506 0 0.240004
0 0.0334755 0 0.239092
0 0.038372 0 0.23815
0 0.0434463 0 0.237188
0 0.0487048 0 0.236214
0 0.0541543 0 0.235255
0 0.0598016 0 0.234356
0 0.0656539 0 0.23353
0 0.0717187 0 0.232739
0.075776 0.00184055 0 0.244777
0.075776 0.00558849 0 0.244109
0.075776 0.00947248 -3.46945e-18 0.243321
0.075776 0.0134975 -3.46945e-18 0.24266
0.075776 0.0176687 3.46945e-18 0.242012
0 0.0780037 0 0.231942
0.075776 0.0219913 3.46945e-18 0.24128
0.075776 0.0264709 3.46945e-18 0.240451
0.075776 0.031113 -3.46945e-18 0.239557
0.075776 0.0359237 -3.46945e-18 0.238628
0 0.0845169 0 0.231129
0.075776 0.0409092 0 0.237673
0.075776 0.0460755 -3.46945e-18 0.236702
0 0.0912666 0 0.230302
0.075776 0.0514296 -3.46945e-18 0.235726
0.075776 0.0569779 0 0.234784
0 0.0982613 0 0.229464
0.075776 0.0627278 0 0.233927
0.075776 0.0686863 0 0.233133
0 0.10551 0 0.228612
0.075776 0.0748612 3.46945e-18 0.232345
0.075776 0.0812603 -3.46945e-18 0.231539
0 0.113022 0 0.227746
0.075776 0.0878918 3.46945e-18 0.230719
0 0.120806 0 0.226862
0.075776 0.0947639 3.46945e-18 0.229886
0.075776 0.101886 -3.46945e-18 0.229041
0 0.128874 0 0.225959
0.075776 0.109266 3.46945e-18 0.228183
0 0.137234 0 0.225045
0.075776 0.116914 3.46945e-18 0.227308
0 0.145897 0 0.224142
0.075776 0.12484 0 0.226415
0.151552 0 0 0.227119
0.151552 0.00368111 0 0.22699
0.151552 0.00749587 0 0.226741
0.151552 0.0114491 0 0.226538
0.151552 0.0155459 0 0.226371
0.151552 0.0197915 0 0.226179
0.075776 0.133054 0 0.225503
0.151552 0.0241911 0 0.225937
0.151552 0.0287506 0 0.225648
0 0.154876 0 0.22328
0.151552 0.0334755 0 0.225328
0.151552 0.038372 0 0.224988
0.151552 0.0434463 0 0.224631
0.151552 0.0487048 0 0.224263
0.075776 0.141566 0 0.224587
0.151552 0.0541543 0 0.223895
0.151552 0.0598016 0 0.223548
0 0.16418 0 0.222474
0.151552 0.0656539 0 0.223229
0.151552 0.0717187 0 0.222917
0.075776 0.150387 0 0.223698
0.151552 0.0780037 0 0.222593
0.151552 0.0845169 0 0.222251
0 0.173822 0 0.221724
0.075776 0.159528 0 0.222861
0.151552 0.0912666 0 0.221893
0.151552 0.0982613 0 0.221522
0 0.183814 0 0.221014
0.151552 0.10551 0 0.221143
0.075776 0.169001 3.46945e-18 0.222086
0.151552 0.113022 0 0.220751
0.151552 0.120806 0 0.220341
0 0.194169 0 0.220324
0.075776 0.178818 3.46945e-18 0.221362
0.151552 0.128874 0 0.219907
0.075776 0.188992 3.46945e-18 0.220667
0.151552 0.137234 0 0.219449
0 0.2049 0 0.219637
0.151552 0.145897 0 0.218982
0.075776 0.199535 0 0.219982
0 0.21602 0 0.218934
0.151552 0.154876 0 0.218523
0.219992 0.00184055 0 0.21082
0.219992 0.00558849 0 0.21094
0.219992 0.00947248 -3.46945e-18 0.211204
0.219992 0.0134975 3.46945e-18 0.211497
0.219992 0.0176687 0 0.211771
0.219992 0.0219913 0 0.212032
0.219993 0.0264709 -3.46945e-18 0.21228
0.219992 0.031113 -3.46945e-18 0.212513
0.219992 0.0359238 3.46945e-18 0.212732
0.151552 0.16418 0 0.218079
0.075776 0.21046 0 0.219292
0.219992 0.0409092 3.46945e-18 0.212942
0.219992 0.0460755 0 0.213139
0.219993 0.0514296 -3.46945e-18 0.213324
0.219992 0.0569779 0 0.213494
0 0.227544 0 0.218191
0.219992 0.0627277 3.46945e-18 0.21365
0.219992 0.0686863 0 0.213789
0.151552 0.173822 0 0.217649
0.219992 0.0748612 3.46945e-18 0.213911
0.075776 0.221782 0 0.218576
0.219992 0.0812603 3.46945e-18 0.214013
0.219992 0.0878917 -3.46945e-18 0.214096
0.151552 0.183814 0 0.217226
7.47806e-17 0.239487 0 0.217393
0.219992 0.0947639 3.46945e-18 0.214162
0.219993 0.101886 3.46945e-18 0.21422
0.075776 0.233516 0 0.217805
0.219993 0.109266 0 0.214274
0.151552 0.194169 0 0.216797
0.219993 0.116914 0 0.214315
0 0.251863 0 0.216554
0.219993 0.12484 0 0.214329
0.151552 0.2049 0 0.216355
0.075776 0.245675 0 0.216981
0.219992 0.133054 3.46945e-18 0.214309
0.219992 0.141565 0 0.214256
0.151552 0.21602 0 0.215889
0 0.264688 0 0.215693
0.219992 0.150387 3.46945e-18 0.21418
0.075776 0.258275 3.46945e-18 0.216128
0.219992 0.159528 -3.46945e-18 0.214081
0.151552 0.227544 0 0.215386
0.219992 0.169001 3.46945e-18 0.21396
0 0.27798 0 0.214816
0.075776 0.271334 3.46945e-18 0.215259
0.151552 0.239487 3.70071e-18 0.214839
0.219992 0.178818 3.46945e-18 0.213814
0.288433 0 0 0.214933
0.288433 0.00368111 0 0.214976
0.288433 0.00749587 0 0.215108
0.288433 0.0114491 0 0.215297
0.288433 0.0155459 3.70071e-18 0.215496
0.288433 0.0197915 0 0.215692
0.288433 0.0241911 3.70071e-18 0.215885
0.288433 0.0287506 0 0.216072
0.219992 0.188991 0 0.213641
0.288433 0.0334755 0 0.216252
0.288433 0.038372 0 0.216427
0.288433 0.0434463 0 0.216595
7.47806e-17 0.291753 0 0.213919
0.288433 0.0487048 0 0.216755
0.288433 0.0541543 0 0.216906
0.151552 0.251863 0 0.214254
0.288433 0.0598016 3.70071e-18 0.217048
0.075776 0.284866 0 0.214373
0.288433 0.0656539 3.70071e-18 0.217179
0.219992 0.199534 0 0.21344
0.288433 0.0717187 0 0.2173
0.288433 0.0780037 0 0.217411
0.288433 0.0845169 0 0.217508
0.288433 0.0912666 0 0.217585
0.219992 0.21046 -3.46945e-18 0.213208
0.288433 0.0982613 0 0.217643
0.151552 0.264688 3.70071e-18 0.213641
0 0.306027 0 0.212992
0.288433 0.10551 0 0.217687
0.075776 0.29889 3.46945e-18 0.213464
0.288433 0.113022 0 0.217716
0.219993 0.221782 0 0.212945
0.288433 0.120806 0 0.217728
0.288433 0.128874 0 0.217723
0.151552 0.27798 0 0.213007
0.288433 0.137234 0 0.217697
0 0.320819 0 0.212026
0.219992 0.233515 -3.46945e-18 0.212648
0.075776 0.313423 -3.46945e-18 0.212519
0.288433 0.145897 0 0.217647
0.288433 0.154876 0 0.217573
0.151552 0.291753 0 0.212349
0.219993 0.245675 0 0.212314
0.288433 0.16418 0 0.217475
0 0.336148 0 0.211035
0.288433 0.173822 0 0.217352
0.075776 0.328484 -3.46945e-18 0.211532
0.219993 0.258275 -3.46945e-18 0.211945
0.151552 0.306027 0 0.211657
0.288433 0.183814 0 0.217204
0.288433 0.194169 0 0.217027
0.219992 0.271334 3.46945e-18 0.211546
0.350249 0.00184056 -3.46945e-18 0.218744
0.350249 0.00558849 0 0.218799
0.350249 0.00947248 3.46945e-18 0.218895
0.350249 0.0134975 0 0.219011
0.350249 0.0176687 0 0.219137
0.350249 0.0219913 0 0.21927
0.350249 0.0264708 3.46945e-18 0.219408
0.350249 0.031113 0 0.219546
0 0.352034 0 0.210058
0.350249 0.0359238 0 0.219684
0.075776 0.344091 0 0.210538
0.350249 0.0409091 0 0.219821
0.350249 0.0460756 3.46945e-18 0.219955
0.288433 0.2049 0 0.216821
0.350249 0.0514296 0 0.220085
0.151552 0.320819 0 0.210921
0.350249 0.0569779 0 0.220209
0.350249 0.0627277 3.46945e-18 0.220327
0.350249 0.0686863 3.46945e-18 0.220441
0.350249 0.0748612 3.46945e-18 0.220553
0.350249 0.0812603 0 0.220662
0.219992 0.284867 0 0.211125
0.288433 0.21602 0 0.216584
0.350249 0.0878917 0 0.220756
0.350249 0.094764 0 0.220821
0.350249 0.101886 0 0.220863
0.350249 0.109266 0 0.220885
0.288433 0.227544 0 0.216313
0.075776 0.360265 3.46945e-18 0.209578
0 0.368496 0 0.209094
0.151552 0.336148 0 0.210145
0.350249 0.116914 3.46945e-18 0.220888
0.219992 0.29889 0 0.210673
0.370854 0.0241911 1.54074e-33 0.222277
0.350249 0.12484 0 0.220882
0.350249 0.133054 0 0.220873
0.288433 0.239487 -9.25154e-19 0.216007
0.350249 0.141566 3.46945e-18 0.220849
0.350249 0.150387 3.46945e-18 0.2208
0.288433 0.251863 0 0.215664
0.219992 0.313423 0 0.210177
0.151552 0.352034 0 0.209345
0.075776 0.377027 0 0.208609
0.350249 0.159528 0 0.220726
0 0.385557 0 0.208089
0.350249 0.169001 0 0.220626
0.288433 0.264688 0 0.215285
0.350249 0.178818 0 0.220502
0.219992 0.328484 0 0.209626
0.350249 0.188992 0 0.22035
0.151552 0.368496 0 0.208525
0.288433 0.27798 3.70071e-18 0.214873
0.075776 0.394397 0 0.207569
0.350249 0.199535 0 0.220169
7.47806e-17 0.403236 0 0.207013
0.219992 0.344091 0 0.209018
0.350249 0.21046 -3.46945e-18 0.219957
0.288433 0.291753 0 0.214427
0.412065 9.08189e-19 3.08149e-33 0.225078
0.412065 0.00368111 -2.31298e-18 0.225098
0.412065 0.00749587 -2.31298e-18 0.225151
0.412065 0.0114491 -2.31298e-18 0.225223
0.412065 0.0155459 -2.31298e-18 0.225303
0.412065 0.0197915 0 0.225387
0.412065 0.0241911 -3.08149e-33 0.225474
0.412065 0.0264709 0 0.225519
0.412065 0.0287506 -2.31298e-18 0.225564
0.412065 0.0334755 -2.31298e-18 0.225656
0.412065 0.038372 -2.31298e-18 0.225751
0.151552 0.385557 0 0.20766
0.412065 0.0434463 0 0.225846
0.350249 0.221782 0 0.219712
0.412065 0.0487048 0 0.225941
0.412065 0.0541543 -3.08149e-33 0.226036
0.412065 0.0569779 0 0.226082
0.412065 0.0598016 -2.31298e-18 0.226128
0.412065 0.0656539 -2.31298e-18 0.226218
0.412065 0.0717187 -2.31298e-18 0.2263
0.075776 0.412396 -3.46945e-18 0.206456
0.412065 0.0780037 -2.31298e-18 0.226369
0.288433 0.306027 0 0.213943
0.412065 0.0845169 -2.31298e-18 0.226414
0.350249 0.233516 3.46945e-18 0.219433
0 0.421557 0 0.205875
0.412065 0.0912666 -2.31298e-18 0.226432
0.219992 0.360265 3.46945e-18 0.208356
0.412065 0.0982613 0 0.226431
0.412065 0.10551 0 0.226414
0.412065 0.113022 -2.31298e-18 0.226381
0.350249 0.245675 0 0.219117
0.412065 0.120806 0 0.226333
0.151552 0.403236 0 0.206732
0.288433 0.320819 0 0.213411
0.412065 0.128874 -2.31298e-18 0.226275
0.412065 0.137234 0 0.226204
0.350249 0.258275 -3.46945e-18 0.218763
0.219992 0.377026 0 0.207644
0.412065 0.145897 -2.31298e-18 0.226117
0.075776 0.431051 0 0.205293
0.412065 0.154876 -2.31298e-18 0.22601
0 0.440544 0 0.204691
0.288433 0.336148 0 0.212827
0.350249 0.271334 0 0.218368
0.412065 0.16418 -2.31298e-18 0.225882
0.412065 0.173822 -2.31298e-18 0.225732
0.151552 0.421557 0 0.205743
0.412065 0.183814 -2.31298e-18 0.225559
0.350249 0.284867 3.46945e-18 0.217935
0.219992 0.394397 0 0.206882
0.288433 0.352034 3.70071e-18 0.212189
0.412065 0.194169 0 0.22536
0.075776 0.450382 0 0.204088
0.412065 0.2049 -2.31298e-18 0.225133
0 0.46022 0 0.203466
0.350249 0.29889 3.46945e-18 0.217462
0.412065 0.21602 0 0.224877
0.151552 0.440544 0 0.2047
0.219993 0.412396 3.46945e-18 0.206063
0.467897 0.00184056 -3.46945e-18 0.230971
0.467897 0.00558849 0 0.230996
0.288433 0.368496 0 0.211498
0.467897 0.00947248 0 0.231034
0.467897 0.0134975 0 0.231076
0.467897 0.0176687 3.46945e-18 0.231119
0.467897 0.0219913 -3.46945e-18 0.231159
0.467897 0.0264709 3.46945e-18 0.231203
0.467897 0.0311131 3.46945e-18 0.231251
0.467897 0.0359238 -3.46945e-18 0.231302
0.467897 0.038372 0 0.232007
0.467897 0.0409092 3.46945e-18 0.231359
0.350249 0.313423 0 0.216946
0.467897 0.0460755 0 0.231419
0.467897 0.0514296 3.46945e-18 0.231482
0.412065 0.227544 -2.31298e-18 0.22459
0.467897 0.0569779 0 0.231547
0.467897 0.0627277 -3.46945e-18 0.231613
0.467897 0.0686863 3.46945e-18 0.231676
0.467897 0.0748612 0 0.231724
0.467897 0.0812603 0 0.231735
0.467897 0.0878918 3.46945e-18 0.231708
0.075776 0.470415 3.46945e-18 0.202842
0.412065 0.239487 -2.31298e-18 0.224268
0.467897 0.0947639 -3.46945e-18 0.23166
0.467897 0.101886 3.46945e-18 0.231602
0.350249 0.328483 0 0.216383
0.467897 0.109266 0 0.231534
0 0.48061 0 0.202196
0.288433 0.385557 0 0.210752
0.467897 0.116914 0 0.231452
0.412065 0.251863 -2.31298e-18 0.22391
0.219992 0.431051 0 0.205181
0.467897 0.12484 0 0.231354
0.151552 0.46022 0 0.203604
0.467897 0.133054 3.46945e-18 0.231239
0.467897 0.141566 3.46945e-18 0.231112
0.412065 0.264688 -2.31298e-18 0.223514
0.350249 0.344091 -3.46945e-18 0.21577
0.467897 0.150387 3.46945e-18 0.230971
0.467897 0.154876 0 0.231667
0.467897 0.159528 3.46945e-18 0.230814
0.288433 0.403236 0 0.209948
0.075776 0.491175 0 0.201547
0.412065 0.27798 -2.31298e-18 0.223077
0.467897 0.169001 0 0.23064
0.467897 0.178818 3.46945e-18 0.230445
0.219992 0.450382 0 0.204237
6.73026e-17 0.501741 3.70071e-18 0.200875
0.350249 0.360265 0 0.215103
0.151552 0.48061 0 0.202454
0.467897 0.188991 0 0.230228
0.412065 0.291753 0 0.222599
0.467897 0.199535 0 0.229986
0.288433 0.421557 0 0.209083
0.467897 0.21046 0 0.229719
0.412065 0.306027 0 0.222077
0.350249 0.377027 0 0.214378
0.467897 0.221782 3.46945e-18 0.229423
0.075776 0.51269 0 0.2002
0.219993 0.470415 3.46945e-18 0.203229
0.467897 0.227544 0 0.229997
0.412065 0.320819 -2.31298e-18 0.221508
0.467897 0.233515 0 0.229095
6.73026e-17 0.523639 3.70071e-18 0.199501
0.523729 0 0 0.238031
0.523729 0.00368111 0 0.238041
0.523729 0.00749587 -2.31298e-18 0.238067
0.523729 0.0114491 0 0.2381
0.523729 0.0155459 0 0.238131
0.523729 0.0197915 -2.31298e-18 0.238156
0.151552 0.501741 0 0.201242
0.523729 0.0241911 0 0.238179
0.523729 0.0287506 0 0.238204
0.523729 0.0334755 0 0.238232
0.523729 0.038372 -3.08149e-33 0.238263
0.523729 0.0434463 0 0.238297
0.523729 0.0487048 0 0.238334
0.523729 0.0541543 0 0.238375
0.288433 0.440544 0 0.208152
0.523729 0.0598016 0 0.238417
0.350249 0.394397 -3.46945e-18 0.213594
0.523729 0.0656539 0 0.238458
0.467897 0.245675 0 0.228735
0.523729 0.0717187 0 0.238487
0.523729 0.0780037 0 0.238483
0.523729 0.0845169 0 0.238438
0.523729 0.0912666 0 0.238367
0.412065 0.336148 0 0.220889
0.523729 0.0982613 0 0.238283
0.523729 0.10551 -2.31298e-18 0.238189
0.467897 0.258275 -3.46945e-18 0.228338
0.523729 0.113022 0 0.238083
0.523729 0.120806 -3.08149e-33 0.237962
0.219993 0.491176 0 0.202156
0.523729 0.12484 0 0.237894
0.523729 0.128874 -2.31298e-18 0.237826
0.075776 0.534986 0 0.1988
0.467897 0.271334 3.46945e-18 0.227901
0.350249 0.412396 -3.46945e-18 0.212748
0.523729 0.137234 0 0.237674
0.412065 0.352034 -2.31298e-18 0.220216
0.288433 0.46022 0 0.207154
0.523729 0.145897 0 0.237507
0.151552 0.523639 0 0.199965
0.523729 0.154876 -3.08149e-33 0.237323
0 0.546332 0 0.198071
0.523729 0.159528 0 0.237222
0.467897 0.284867 -3.46945e-18 0.227423
0.523729 0.16418 -2.31298e-18 0.237121
0.523729 0.173822 0 0.236898
0.412065 0.368496 0 0.219487
0.523729 0.183814 0 0.236652
0.467897 0.29889 0 0.226899
0.350249 0.431051 -3.46945e-18 0.211836
0.219992 0.51269 0 0.201009
0.523729 0.194169 0 0.236382
0.288433 0.48061 0 0.206087
0.523729 0.2049 0 0.236085
0.467897 0.313423 3.46945e-18 0.226328
0.075776 0.558091 0 0.197341
0.412065 0.385557 0 0.218697
0.523729 0.21602 -3.08149e-33 0.23576
0.151552 0.546332 0 0.198617
0 0.569849 0 0.19658
0.350249 0.450382 3.46945e-18 0.210854
0.523729 0.227544 -3.08149e-33 0.235405
0.467897 0.328483 0 0.225707
0.523729 0.231525 1.54074e-33 0.235275
0.574156 0.00184056 0 0.244627
0.574156 0.00558849 0 0.244644
0.574157 0.00947248 0 0.244669
0.574156 0.0134975 -3.46945e-18 0.244695
0.574156 0.0176687 -3.46945e-18 0.24471
0.574156 0.0219913 0 0.244716
0.574156 0.0264708 -3.46945e-18 0.24472
0.574156 0.031113 0 0.244727
0.574156 0.0359238 -3.46945e-18 0.244736
0.574157 0.0409092 0 0.244746
0.523729 0.239487 3.70071e-18 0.235016
0.574156 0.0460755 -3.46945e-18 0.244759
0.574156 0.0514295 0 0.244776
0.412065 0.403236 0 0.217845
0.574157 0.0569779 0 0.244795
0.574156 0.0627277 0 0.244817
0.574156 0.0686863 0 0.244835
0.219992 0.534986 0 0.19978
0.288433 0.501741 0 0.204945
0.574156 0.0748612 3.46945e-18 0.244824
0.574156 0.0812603 0 0.244764
0.467897 0.344091 0 0.225032
0.574156 0.0878917 3.46945e-18 0.244668
0.523729 0.251863 0 0.234591
0.574157 0.0947639 0 0.24456
0.574156 0.101886 0 0.244442
0.574156 0.109266 0 0.244313
0.574156 0.116914 0 0.244171
0.412065 0.416977 -6.16298e-33 0.217156
0.350249 0.470415 0 0.2098
0.523729 0.264688 0 0.234129
0.075776 0.582034 0 0.195817
0.574156 0.12484 0 0.244014
0.574156 0.133054 3.46945e-18 0.243843
0.412065 0.421557 -2.31298e-18 0.216926
0.151552 0.569849 0 0.197195
0.467897 0.360265 -3.46945e-18 0.224301
0.574157 0.141566 -3.46945e-18 0.243654
0.523729 0.27798 0 0.233625
0.574156 0.150386 3.46945e-18 0.243447
0 0.594219 0 0.195022
0.574156 0.159528 -3.46945e-18 0.243221
0.574156 0.16418 0 0.243747
0.288433 0.523639 1.2326e-32 0.203724
0.574157 0.169001 0 0.242973
0.523729 0.291753 0 0.233078
0.219993 0.558091 3.46945e-18 0.198465
0.467897 0.377026 0 0.22351
0.574156 0.178818 3.46945e-18 0.242703
0.412065 0.440544 -2.31298e-18 0.215938
0.350249 0.491175 0 0.20867
0.574156 0.188992 3.46945e-18 0.242408
0.523729 0.306027 -3.08149e-33 0.232484
0.574157 0.199535 0 0.242087
0.574157 0.21046 0 0.241737
0.075776 0.606847 0 0.194224
0.467897 0.394397 0 0.222657
0.151552 0.594219 0 0.195695
0.523729 0.320819 0 0.23184
0.574157 0.221782 -3.46945e-18 0.241356
0.412065 0.46022 3.08149e-33 0.214877
0.288433 0.546332 0 0.202417
0 0.619475 0 0.193392
0.574156 0.233515 3.46945e-18 0.240943
0.350249 0.51269 3.46945e-18 0.20746
0.219992 0.582034 3.46945e-18 0.197063
0.523729 0.336148 0 0.231144
0.467897 0.412396 0 0.221737
0.574156 0.245675 0 0.240495
0.624584 0 0 0.252497
0.624584 0.00368111 0 0.252504
0.624584 0.00749587 0 0.252525
0.624584 0.0114491 0 0.25255
0.624584 0.0155459 0 0.252569
0.624584 0.0197915 0 0.252574
0.624584 0.0241911 -2.31298e-18 0.252569
0.624584 0.0287506 0 0.252561
0.624584 0.0334755 0 0.252554
0.624584 0.038372 0 0.252549
0.624584 0.0434463 -2.31298e-18 0.252545
0.624584 0.0487048 0 0.252542
0.624584 0.0541543 0 0.252541
0.624584 0.0598016 0 0.25254
0.624584 0.0656539 0 0.252535
0.624584 0.0717187 0 0.252507
0.624584 0.0780037 0 0.252438
0.574157 0.258276 3.46945e-18 0.24001
0.624584 0.0845169 0 0.252331
0.523729 0.352034 0 0.230393
0.624584 0.0912666 0 0.252202
0.624584 0.0982613 0 0.252061
0.412065 0.48061 3.08149e-33 0.21374
0.624584 0.10551 0 0.251908
0.624584 0.113022 -2.31298e-18 0.251741
0.574156 0.271334 0 0.239484
0.624584 0.120806 0 0.251559
0.467897 0.431051 0 0.220747
0.075776 0.632561 -3.46945e-18 0.192557
0.624584 0.128874 0 0.25136
0.151552 0.619475 0 0.194111
0.288433 0.569849 0 0.201022
0.350249 0.534985 0 0.206165
0.624584 0.137234 -2.31298e-18 0.251143
0.523729 0.368496 0 0.229582
0.574156 0.284866 -3.46945e-18 0.238917
0.624584 0.145897 0 0.250908
0.467897 0.440544 0 0.220808
0.624584 0.154876 0 0.250652
0.219992 0.606847 -3.46945e-18 0.195571
0 0.645647 0 0.191685
0.624584 0.16418 -3.08149e-33 0.250374
0.574156 0.29889 -3.46945e-18 0.238304
0.624584 0.173822 0 0.250073
0.412065 0.501741 1.54074e-33 0.212522
0.467897 0.450382 -3.46945e-18 0.219685
0.523729 0.385557 0 0.228709
0.624584 0.183814 0 0.249746
0.624584 0.194169 0 0.249393
0.574156 0.313423 0 0.237642
0.624584 0.2049 0 0.249011
0.350249 0.558091 3.46945e-18 0.204783
0.288433 0.594219 0 0.199536
0.624584 0.21602 0 0.248598
0.523729 0.403236 0 0.22777
0.574156 0.328483 -3.46945e-18 0.236929
0.151552 0.645647 0 0.192442
0.467897 0.470415 3.46945e-18 0.218546
0.075776 0.659208 0 0.190809
0.624584 0.227544 0 0.248152
0.412065 0.523639 0 0.21122
0.523729 0.41545 3.08149e-33 0.227097
0.624584 0.239487 3.70071e-18 0.247671
0.574156 0.344091 0 0.236161
0.219992 0.632561 0 0.193984
0.67013 0.00184055 0 0.259885
0.67013 0.00558849 0 0.2599
0.67013 0.00947248 0 0.259923
0.67013 0.0134975 0 0.259949
0.67013 0.0176687 -3.46945e-18 0.25996
0.67013 0.0219913 0 0.25995
0.67013 0.0264708 3.46945e-18 0.25993
0.67013 0.0311131 0 0.259909
0.67013 0.0359237 0 0.25989
0.67013 0.0409092 -3.46945e-18 0.259871
0.67013 0.0460755 0 0.259852
0.67013 0.0514296 3.46945e-18 0.259833
0.523729 0.421557 -2.31298e-18 0.226761
0.67013 0.056978 0 0.259813
0 0.67277 0 0.189895
0.67013 0.0627277 0 0.259791
0.624584 0.251863 0 0.247152
0.67013 0.0686863 0 0.259755
0.67013 0.0748612 3.46945e-18 0.259678
0.67013 0.0812603 0 0.259555
0.67013 0.0878917 0 0.259407
0.67013 0.0947639 3.46945e-18 0.259247
0.574156 0.360265 0 0.235335
0.67013 0.101886 0 0.259074
0.523729 0.431051 0 0.22622
0.624584 0.264688 0 0.246594
0.467897 0.491175 0 0.217327
0.67013 0.109266 3.46945e-18 0.258886
0.350249 0.582034 0 0.203309
0.67013 0.116914 0 0.258681
0.67013 0.12484 0 0.258459
0.67013 0.133054 0 0.258218
0.288433 0.619475 0 0.197954
0.624584 0.27798 -3.08149e-33 0.245993
0.412065 0.546332 1.54074e-33 0.209828
0.523729 0.440544 -3.08149e-33 0.225678
0.67013 0.141566 3.46945e-18 0.257958
0.685312 0.0241911 -7.70372e-34 0.263166
0.685312 0.0434463 -7.70372e-34 0.263056
0.67013 0.150387 0 0.257676
0.574156 0.377026 -3.46945e-18 0.234447
0.67013 0.159528 0 0.257372
0.624584 0.291753 0 0.245347
0.151552 0.67277 0 0.19068
0.075776 0.686823 0 0.188976
0.67013 0.169001 0 0.257044
0.67013 0.178818 0 0.25669
0.467897 0.51269 0 0.216023
0.685312 0.113022 -7.70372e-34 0.261849
0.219992 0.659208 0 0.192301
0.624584 0.306027 0 0.244653
0.67013 0.188991 0 0.256309
0.574156 0.394397 3.46945e-18 0.233494
0.523729 0.46022 0 0.224519
0.685312 0.137234 -7.70372e-34 0.261107
0.67013 0.199535 -3.46945e-18 0.255899
0.350249 0.606847 0 0.201738
0 0.700877 0 0.188016
0.624584 0.320819 0 0.243908
0.67013 0.21046 0 0.255458
0.412065 0.569849 -2.31298e-18 0.208344
0.67013 0.221782 -3.46945e-18 0.254984
0.574157 0.412396 0 0.232472
0.288433 0.645647 0 0.196272
0.624584 0.336148 -3.08149e-33 0.243108
0.67013 0.233515 3.46945e-18 0.254475
0.467897 0.534986 0 0.214629
0.523729 0.48061 0 0.223278
0.624584 0.344091 0 0.242679
0.67013 0.245675 0 0.253928
0.715676 4.54095e-19 0 0.26843
0.715676 0.00368111 0 0.268436
0.715676 0.00749587 0 0.268455
0.715676 0.0114491 0 0.26848
0.715676 0.0155459 0 0.268497
0.715676 0.0197915 0 0.268492
0.715676 0.0241911 0 0.268465
0.715676 0.0287506 0 0.268428
0.715676 0.0334755 0 0.26839
0.715676 0.038372 0 0.268351
0.624584 0.352034 -2.31298e-18 0.242251
0.715676 0.0434463 0 0.268311
0.151552 0.700877 0 0.188823
0.715676 0.0487048 0 0.26827
0.715676 0.0541543 0 0.268228
0.574156 0.43105 0 0.231376
0.715676 0.0598016 0 0.268183
0.67013 0.258275 0 0.253341
0.715676 0.0656539 0 0.268127
0.715676 0.0717187 0 0.268037
0.075776 0.715441 0 0.187052
0.715676 0.0780037 0 0.267903
0.715676 0.0845169 0 0.267736
0.219992 0.686824 0 0.190516
0.715676 0.0912666 0 0.267551
0.715676 0.0982613 0 0.267352
0.67013 0.271334 -3.46945e-18 0.252712
0.350249 0.632561 -3.46945e-18 0.200066
0.412065 0.594219 3.08149e-33 0.206761
0.715676 0.10551 0 0.267136
0.715676 0.113022 0 0.266903
0.624584 0.368496 0 0.241332
0.523729 0.501741 0 0.221952
0.715676 0.120806 0 0.266652
0.715676 0.128874 0 0.266381
0.67013 0.284867 0 0.252038
0.467897 0.558091 3.46945e-18 0.213142
0.715676 0.137234 0 0.266089
0.574156 0.450382 0 0.230202
0 0.730005 0 0.186044
0.715676 0.145897 0 0.265775
0.288433 0.67277 0 0.194486
0.715676 0.154876 0 0.265438
0.67013 0.29889 0 0.251317
0.624584 0.385557 0 0.240347
0.715676 0.16418 -9.25187e-19 0.265076
0.715676 0.173822 0 0.264687
0.715676 0.183814 0 0.264271
0.67013 0.313423 0 0.250544
0.523729 0.523639 0 0.220535
0.715676 0.194169 0 0.263825
0.574156 0.470415 3.46945e-18 0.228948
0.624584 0.403236 0 0.239294
0.743101 0.0241911 -7.70372e-34 0.274162
0.412065 0.619475 3.08149e-33 0.205076
0.715676 0.2049 0 0.263347
0.151552 0.730005 0 0.186865
0.67013 0.328484 3.46945e-18 0.249718
0.350249 0.659208 0 0.198289
0.467897 0.582034 0 0.211556
0.715676 0.21602 0 0.262835
0.219992 0.715441 0 0.188625
0.075776 0.745097 -3.46945e-18 0.185032
0.715676 0.227544 0 0.262289
0.67013 0.344091 0 0.248834
0.624584 0.421557 0 0.238168
0.743101 0.128874 -7.70372e-34 0.271708
0.715676 0.239487 3.70071e-18 0.261704
0.574156 0.491175 0 0.227607
0.756814 0.00184055 0 0.276491
0.523729 0.546332 0 0.219024
0.756813 0.00558849 0 0.276506
0.756813 0.00947248 0 0.276529
0.756814 0.0134975 -3.46945e-18 0.276556
0.756814 0.0155459 0 0.277063
0.756814 0.0176687 0 0.27656
0.756814 0.0219913 0 0.276532
0.756814 0.0264709 0 0.276484
0.756814 0.031113 -3.46945e-18 0.276431
0.756813 0.0359238 -3.46945e-18 0.276374
0.288433 0.700877 0 0.192593
0.756814 0.0409092 -3.46945e-18 0.276315
0.756813 0.0460755 3.46945e-18 0.276254
0.756813 0.0514296 0 0.276191
0.715676 0.251863 0 0.261079
0.756813 0.0569779 0 0.276127
0.756814 0.0627277 -3.46945e-18 0.276057
0.756814 0.0686863 -3.46945e-18 0.275962
0 0.76019 0 0.183973
0.756814 0.0748612 0 0.275817
0.67013 0.360265 3.46945e-18 0.247889
0.756814 0.0812603 -3.46945e-18 0.27563
0.756814 0.0878917 -3.46945e-18 0.275423
0.756814 0.0947639 -3.46945e-18 0.275202
0.715676 0.264688 0 0.260412
0.756813 0.101886 0 0.274963
0.624584 0.440544 0 0.236964
0.756813 0.109266 3.46945e-18 0.274705
0.756813 0.116914 3.46945e-18 0.274428
0.412065 0.645647 0 0.203283
0.467897 0.606847 0 0.209866
0.756814 0.120806 0 0.274687
0.756813 0.12484 0 0.274131
0.715676 0.27798 0 0.259701
0.756814 0.133054 -3.46945e-18 0.273812
0.67013 0.377026 -3.46945e-18 0.24688
0.756814 0.137234 0 0.274034
0.574156 0.51269 0 0.226175
0.756813 0.141566 3.46945e-18 0.27347
0.685312 0.352034 -7.70372e-34 0.250994
0.743101 0.2049 -7.70372e-34 0.268406
0.350249 0.686824 0 0.196401
0.756814 0.150387 0 0.273104
0.756814 0.154876 0 0.273288
0.715676 0.291753 0 0.258941
0.756814 0.159528 -3.46945e-18 0.272712
0.523729 0.569849 0 0.217412
0.72743 0.264688 0 0.262499
0.756814 0.16418 0 0.272876
0.151552 0.76019 0 0.184801
0.756813 0.169001 3.46945e-18 0.272293
0.624584 0.46022 0 0.235678
0.219993 0.745097 0 0.186626
0.67013 0.394396 0 0.245802
0.756813 0.178818 -3.46945e-18 0.271845
0.715676 0.306027 0 0.258131
0.075776 0.775831 0 0.182909
0.756813 0.188991 0 0.271367
0.756814 0.199535 0 0.270857
0.715676 0.320819 0 0.257267
0.574156 0.534985 0 0.224648
0.288433 0.730005 0 0.190587
0.756813 0.21046 0 0.270313
0.467897 0.632561 0 0.208067
0.67013 0.412396 -3.46945e-18 0.244652
0.624584 0.48061 -3.08149e-33 0.234306
0.756814 0.221782 0 0.269734
0.412065 0.67277 3.08149e-33 0.201377
0.715676 0.336148 0 0.256347
0 0.791472 0 0.181797
0.756813 0.233516 3.46945e-18 0.269116
0.523729 0.594219 0 0.215694
0.624584 0.487654 1.54074e-33 0.233819
0.756814 0.245675 3.46945e-18 0.268458
0.350249 0.715441 3.46945e-18 0.194398
0.67013 0.43105 0 0.243424
0.715676 0.352034 -9.25187e-19 0.255366
0.797951 9.08189e-19 -3.08149e-33 0.285562
0.797951 0.00368111 2.31298e-18 0.285569
0.797951 0.00749587 2.31298e-18 0.285589
0.797951 0.0114491 2.31298e-18 0.285614
0.797951 0.0141803 7.70372e-34 0.285623
0.797951 0.0155459 0 0.285628
0.797951 0.0169611 7.70372e-34 0.285622
0.797951 0.0197915 2.31298e-18 0.285609
0.797951 0.0219913 0 0.285584
0.797951 0.0241911 3.08149e-33 0.285558
0.797951 0.0264709 0 0.285522
0.797951 0.0287506 -3.08149e-33 0.285487
0.797951 0.0334755 2.31298e-18 0.285407
0.797951 0.038372 2.31298e-18 0.285322
0.797951 0.0434463 2.31298e-18 0.285232
0.797951 0.0487048 0 0.285139
0.756813 0.258275 -3.46945e-18 0.267758
0.797951 0.0541543 2.31298e-18 0.285042
0.797951 0.0598016 2.31298e-18 0.284939
0.797951 0.0656539 2.31298e-18 0.284816
0.574156 0.55809 0 0.223019
0.624584 0.501741 0 0.232843
0.797951 0.0717187 2.31298e-18 0.284652
0.797951 0.0780037 -3.08149e-33 0.284442
0.797951 0.0845169 2.31298e-18 0.284203
0.797951 0.0912666 -3.08149e-33 0.283945
0.797951 0.0982613 2.31298e-18 0.28367
0.756813 0.271334 0 0.267013
0.797951 0.10551 2.31298e-18 0.283375
0.715676 0.368496 0 0.254321
0.151552 0.791472 0 0.182627
0.797951 0.113022 2.31298e-18 0.283059
0.219992 0.775831 3.46945e-18 0.184512
0.797951 0.118211 7.70372e-34 0.282835
0.770526 0.239487 1.54074e-33 0.271597
0.797951 0.120806 0 0.282722
0.67013 0.450382 3.46945e-18 0.242115
0.797951 0.128874 3.08149e-33 0.282363
0.467897 0.659208 0 0.206154
0.756813 0.284866 -3.46945e-18 0.266221
0.743101 0.320819 -7.70372e-34 0.26197
0.797951 0.137234 0 0.28198
0.797951 0.141566 0 0.281776
0.797951 0.145897 -9.25187e-19 0.281572
0.523729 0.619475 0 0.213866
0.075776 0.807681 0 0.180679
0.797951 0.150387 0 0.281355
0.797951 0.154876 0 0.281138
0.715676 0.385557 0 0.253207
0.412065 0.700877 3.08149e-33 0.199354
0.288433 0.76019 0 0.188463
0.756813 0.29889 0 0.265379
0.797951 0.16418 0 0.280676
0.624584 0.523639 0 0.231283
0.797951 0.167394 7.70372e-34 0.280513
0.797951 0.173822 2.31298e-18 0.280186
0.574156 0.582034 0 0.221284
0.67013 0.470415 0 0.24072
0.797951 0.183814 2.31298e-18 0.279665
0.756813 0.313423 -3.46945e-18 0.264483
0.797951 0.194169 -9.25187e-19 0.279112
0.715676 0.403236 0 0.252022
0.151552 0.807681 0 0.181482
0.797951 0.197746 -7.70372e-34 0.278917
0.350249 0.745097 0 0.192275
0.797951 0.2049 3.08149e-33 0.278525
0 0.823889 0 0.179512
0.756813 0.328483 -3.46945e-18 0.263531
0.797951 0.21046 0 0.278214
0.797951 0.21602 -3.08149e-33 0.277903
0.797951 0.223703 7.70372e-34 0.277463
0.797951 0.227544 9.25187e-19 0.277243
0.624584 0.546332 0 0.229621
0.715676 0.421557 0 0.25076
0.67013 0.491176 -3.46945e-18 0.239233
0.797951 0.231525 7.70372e-34 0.27701
0.467897 0.686824 -3.46945e-18 0.204121
0.523729 0.645647 0 0.211921
0.756813 0.344091 -3.46945e-18 0.262519
0.822721 0.120806 7.70372e-34 0.288258
0.797951 0.239487 -3.08149e-33 0.276543
0.822721 0.137234 7.70372e-34 0.287447
0.835106 0.00184056 0 0.294164
0.835106 0.00558849 0 0.29418
0.835106 0.00947248 0 0.294205
0.835106 0.0134975 0 0.294232
0.835107 0.0176687 0 0.294229
0.835106 0.0219913 -3.46945e-18 0.294181
0.574156 0.606847 3.46945e-18 0.219437
0.835106 0.0241911 0 0.29446
0.835106 0.0264709 -3.46945e-18 0.294101
0.822721 0.145897 -7.70372e-34 0.287004
0.835106 0.031113 3.46945e-18 0.294002
0.835106 0.0359238 3.46945e-18 0.293894
0.835106 0.0409092 -3.46945e-18 0.293779
0.835106 0.0460755 3.46945e-18 0.293658
0.835106 0.0514296 0 0.293533
0.797951 0.251863 -3.08149e-33 0.275801
0.835106 0.0541543 0 0.293773
0.835106 0.0569779 0 0.293402
0.219992 0.807681 3.46945e-18 0.18228
0.822721 0.154876 7.70372e-34 0.286534
0.835106 0.0627277 0 0.293259
0.151552 0.823889 0 0.180337
0.797951 0.255069 -1.54074e-33 0.275605
0.835106 0.0686863 3.46945e-18 0.293079
0.756814 0.360265 -3.46945e-18 0.261444
0.412065 0.730005 0 0.197207
0.835106 0.0748612 0 0.292846
0.822721 0.16418 7.70372e-34 0.286036
0.835106 0.0812603 0 0.292577
0.835106 0.0878917 -3.46945e-18 0.292288
0.715676 0.440544 0 0.249417
0.835106 0.094764 0 0.29198
0.797951 0.264688 -1.2326e-32 0.275015
0.835106 0.101886 -3.46945e-18 0.291652
0.835106 0.109266 3.46945e-18 0.291302
0.288433 0.791472 0 0.186218
0.835106 0.116914 0 0.290929
0.67013 0.51269 3.46945e-18 0.237649
0.797951 0.274657 6.16298e-33 0.274391
0.075776 0.840686 -3.46945e-18 0.178337
0.835106 0.12484 0 0.290533
0.797951 0.27798 -3.08149e-33 0.274183
0.624584 0.569849 0 0.227851
0.756813 0.377026 -3.46945e-18 0.260301
0.835106 0.133054 3.46945e-18 0.290113
0.835106 0.141565 3.46945e-18 0.289668
0.835106 0.150386 0 0.289196
0.797951 0.291753 0 0.273301
0.835106 0.159528 3.46945e-18 0.288696
0.715676 0.46022 0 0.247988
0.816529 0.239487 -1.54074e-33 0.280356