# pMean  POINT_DATA 63840
# x  y  z  pMean
0 0.5 3.39583e-17 0.200984
0 0.5 -0.00617931 0.201004
0 0.5 0.00617931 0.200967
0.0124865 0.5 -0.00617931 0.201004
0.0124865 0.5 0.00617931 0.200967
0 0.5 -0.0688207 0.20092
0 0.5 0.0688207 0.200512
0.0124865 0.5 -0.0688207 0.20092
0.0124865 0.5 0.0688207 0.200512
0 0.5 -0.075 0.200883
0 0.5 0.075 0.200438
0 0.5 -0.0811793 0.200849
0 0.5 0.0811793 0.200369
0.0124865 0.5 -0.0811793 0.200849
0.0124865 0.5 0.0811793 0.200369
0.075776 0.5 -0.0375 0.201107
0.075776 0.5 0.0375 0.200882
0.075776 0.5 -0.1125 0.20068
0.075776 0.5 0.1125 0.200017
0 0.5 -0.143821 0.200234
0 0.5 0.143821 0.199393
0.0124865 0.5 -0.143821 0.200234
0.0124865 0.5 0.143821 0.199393
0 0.5 -0.15 0.200146
0 0.5 0.15 0.199269
0.151149 0.5 -0.00137318 0.201333
0 0.5 -0.156179 0.200061
0 0.5 0.156179 0.19915
0.0124865 0.5 -0.156179 0.200061
0.0124865 0.5 0.156179 0.19915
0.151149 0.5 0.075 0.200794
0.151149 0.5 -0.075 0.201247
0.075776 0.5 -0.1875 0.199634
0.075776 0.5 0.1875 0.198544
0.151149 0.5 0.15 0.199608
0.151149 0.5 -0.15 0.200504
0 0.5 -0.218821 0.198931
0 0.5 0.218821 0.197665
0.0124865 0.5 -0.218821 0.198931
0.0124865 0.5 0.218821 0.197665
0.219992 0.5 0.0375 0.201568
0.219993 0.5 -0.0375 0.201803
0 0.5 -0.225 0.198792
0 0.5 0.225 0.197491
0 0.5 -0.231179 0.198657
0 0.5 0.231179 0.197321
0.0124865 0.5 -0.231179 0.198657
0.0124865 0.5 0.231179 0.197321
0.219992 0.5 0.1125 0.200698
0.219993 0.5 -0.1125 0.201388
0.151149 0.5 -0.225 0.199129
0.151149 0.5 0.225 0.1978
0.075776 0.5 -0.2625 0.197972
0.075776 0.5 0.2625 0.19646
0.288069 0.5 -0.00137318 0.204992
0.219992 0.5 0.1875 0.199166
0.219993 0.5 -0.1875 0.200303
0 0.5 0.293821 0.195345
0 0.5 -0.293821 0.197025
0.0124865 0.5 -0.293821 0.197025
0.0124865 0.5 0.293821 0.195345
0.288069 0.5 -0.075 0.20492
0.288069 0.5 0.075 0.204437
0 0.5 -0.3 0.196838
0 0.5 0.3 0.195124
0 0.5 0.306179 0.194906
0 0.5 -0.306179 0.196654
0.0124865 0.5 -0.306179 0.196654
0.0124865 0.5 0.306179 0.194906
0.288069 0.5 -0.15 0.204115
0.288069 0.5 0.15 0.203159
0.151149 0.5 -0.3 0.19715
0.151149 0.5 0.3 0.195399
0.219992 0.5 -0.2625 0.198601
0.219992 0.5 0.2625 0.197025
0.075776 0.5 0.3375 0.193809
0.075776 0.5 -0.3375 0.195725
0.350249 0.5 -0.0375 0.2083
0.350249 0.5 0.0375 0.208047
0.288069 0.5 -0.225 0.202626
0.288069 0.5 0.225 0.201208
0.350249 0.5 0.1125 0.20706
0.350249 0.5 -0.1125 0.207812
0 0.5 0.368821 0.192472
0 0.5 -0.368821 0.194549
0.0124865 0.5 -0.368821 0.194549
0.0124865 0.5 0.368821 0.192472
0 0.5 -0.375 0.194316
0 0.5 0.375 0.192207
0 0.5 -0.381179 0.194086
0 0.5 0.381179 0.191946
0.0124865 0.5 -0.381179 0.194086
0.0124865 0.5 0.381179 0.191946
0.350249 0.5 -0.1875 0.206587
0.350249 0.5 0.1875 0.205346
0.219992 0.5 -0.3375 0.196296
0.219992 0.5 0.3375 0.194301
0.151149 0.5 -0.375 0.194595
0.151149 0.5 0.375 0.192443
0.411736 0.5 -0.00137318 0.212562
0.288069 0.5 -0.3 0.200486
0.288069 0.5 0.3 0.198622
0.411736 0.5 -0.075 0.212473
0.411736 0.5 0.075 0.211943
0.075776 0.5 -0.4125 0.192927
0.075776 0.5 0.4125 0.190626
0.350249 0.5 -0.2625 0.204655
0.350249 0.5 0.2625 0.202942
0.411736 0.5 -0.15 0.211551
0.411736 0.5 0.15 0.210501
0 0.5 -0.443821 0.191539
0 0.5 0.443821 0.189086
0.0124865 0.5 -0.443821 0.191539
0.0124865 0.5 0.443821 0.189086
0 0.5 -0.45 0.191264
0 0.5 0.45 0.188782
0 0.5 -0.456179 0.190992
0 0.5 0.456179 0.18848
0.0124865 0.5 -0.456179 0.190992
0.0124865 0.5 0.456179 0.18848
0.219992 0.5 -0.4125 0.193429
0.219993 0.5 0.4125 0.191038
0.411736 0.5 -0.225 0.209854
0.411736 0.5 0.225 0.208303
0.467897 0.5 0.0375 0.216653
0.467897 0.5 -0.0375 0.216931
0.288069 0.5 -0.375 0.19773
0.288069 0.5 0.375 0.195442
0.151149 0.5 -0.45 0.191504
0.151149 0.5 0.45 0.188973
0.467897 0.5 -0.1125 0.216367
0.467897 0.5 0.1125 0.215536
0.350249 0.5 0.3375 0.199886
0.350249 0.5 -0.3375 0.20205
0.075776 0.5 -0.4875 0.189621
0.075776 0.5 0.4875 0.186957
0.467897 0.5 -0.1875 0.214963
0.467897 0.5 0.1875 0.213596
0.411736 0.5 -0.3 0.207421
0.411736 0.5 0.3 0.205388
0 0.5 -0.518821 0.188039
0 0.5 0.518821 0.185235
0.0124865 0.5 0.518821 0.185235
0.0124865 0.5 -0.518821 0.188039
0.523432 0.5 -0.00137318 0.221992
0 0.5 -0.525 0.187727
0 0.5 0.525 0.184894
0.523432 0.5 -0.075 0.221883
0.523432 0.5 0.075 0.221293
0 0.5 -0.531179 0.187416
0 0.5 0.531179 0.184556
0.0124865 0.5 -0.531179 0.187416
0.0124865 0.5 0.531179 0.184556
0.288069 0.5 -0.45 0.194403
0.288069 0.5 0.45 0.191718
0.219992 0.5 -0.4875 0.190043
0.219993 0.5 0.4875 0.187281
0.467897 0.5 -0.2625 0.212753
0.467897 0.5 0.2625 0.210875
0.350249 0.5 -0.4125 0.198821
0.350249 0.5 0.4125 0.196232
0.523432 0.5 -0.15 0.220823
0.523432 0.5 0.15 0.219655
0.151149 0.5 -0.525 0.187923
0.151149 0.5 0.525 0.185038
0.411736 0.5 -0.375 0.204296
0.411736 0.5 0.375 0.201807
0.075776 0.5 -0.5625 0.185852
0.075776 0.5 0.5625 0.182851
0.523432 0.5 -0.225 0.218879
0.523432 0.5 0.225 0.217156
0.574156 0.5 -0.0375 0.227176
0.574156 0.5 0.0375 0.226863
0.467897 0.5 0.3375 0.207419
0.467897 0.5 -0.3375 0.209785
0.574156 0.5 -0.1125 0.226522
0.574156 0.5 0.1125 0.22559
0 0.5 -0.593821 0.184099
0 0.5 0.593821 0.180967
0.0124865 0.5 -0.593821 0.184099
0.0124865 0.5 0.593821 0.180967
0.288069 0.5 -0.525 0.190557
0.288069 0.5 0.525 0.187505
0 0.5 -0.6 0.183752
0 0.5 0.6 0.180595
0.350249 0.5 -0.4875 0.19502
0.350249 0.5 0.4875 0.192037
0.523432 0.5 -0.3 0.216094
0.523432 0.5 0.3 0.213845
0.219992 0.5 -0.5625 0.186185
0.219992 0.5 0.5625 0.18308
0.574156 0.5 -0.1875 0.224912
0.574156 0.5 0.1875 0.223378
0 0.5 -0.606179 0.183408
0 0.5 0.606179 0.180225
0.0124865 0.5 -0.606179 0.183408
0.0124865 0.5 0.606179 0.180225
0.411736 0.5 -0.45 0.200533
0.411736 0.5 0.45 0.197621
0.151149 0.5 -0.6 0.1839
0.151149 0.5 0.6 0.180689
0.62168 0.5 2.64545e-17 0.232568
0.467897 0.5 0.4125 0.203286
0.467897 0.5 -0.4125 0.206109
0.624316 0.5 0.0729402 0.232089
0.624316 0.5 -0.075 0.232755
0.574156 0.5 -0.2625 0.222375
0.574157 0.5 0.2625 0.220274
0.075776 0.5 -0.6375 0.181671
0.075776 0.5 0.6375 0.178358
0.624316 0.5 -0.15 0.231532
0.624316 0.5 0.15 0.230216
0.523432 0.5 -0.375 0.212525
0.523432 0.5 0.375 0.209782
0.350249 0.5 -0.5625 0.190708
0.350249 0.5 0.5625 0.187364
0.624316 0.5 -0.225 0.229299
0.624316 0.5 0.225 0.227358
0.288069 0.5 0.6 0.182859
0.288069 0.5 -0.6 0.186248
0.574156 0.5 -0.3375 0.21897
0.574156 0.5 0.3375 0.216336
0.411736 0.5 -0.525 0.196198
0.411736 0.5 0.525 0.192896
0 0.5 -0.668821 0.179769
0 0.5 0.668821 0.176336
0.0124865 0.5 -0.668821 0.179769
0.0124865 0.5 0.668821 0.176336
0.67013 0.5 0.0375 0.238405
0.67013 0.5 -0.0375 0.238761
0.219993 0.5 -0.6375 0.181907
0.219993 0.5 0.6375 0.178488
0 0.5 -0.675 0.179392
0 0.5 0.675 0.175936
0.467897 0.5 0.4875 0.198551
0.467897 0.5 -0.4875 0.201793
0.67013 0.5 -0.1125 0.238002
0.67013 0.5 0.1125 0.236945
0 0.5 -0.681179 0.179018
0 0.5 0.681179 0.175539
0.0124865 0.5 -0.681179 0.179018
0.0124865 0.5 0.681179 0.175539
0.523432 0.5 -0.45 0.208239
0.523432 0.5 0.45 0.20504
0.151149 0.5 -0.675 0.179488
0.151149 0.5 0.675 0.175978
0.624316 0.5 -0.3 0.226105
0.624316 0.5 0.3 0.223576
0.67013 0.5 0.1875 0.23441
0.67013 0.5 -0.1875 0.236143
0.574156 0.5 -0.4125 0.214769
0.574157 0.5 0.4125 0.211637
0.708171 0.5 1.88651e-17 0.243894
0.075776 0.5 -0.7125 0.177132
0.075776 0.5 0.7125 0.173533
0.715434 0.5 0.0736268 0.243817
0.715434 0.5 -0.075 0.244743
0.67013 0.5 0.2625 0.230849
0.67013 0.5 -0.2625 0.233233
0.350249 0.5 -0.6375 0.185949
0.350249 0.5 0.6375 0.182278
0.411736 0.5 -0.6 0.191358
0.411736 0.5 0.6 0.187705
0.624316 0.5 -0.375 0.222015
0.624316 0.5 0.375 0.218945
0.715434 0.5 -0.15 0.243334
0.715434 0.5 0.15 0.241837
0.467897 0.5 -0.5625 0.196911
0.467897 0.5 0.5625 0.193289
0.288069 0.5 -0.675 0.181536
0.288069 0.5 0.675 0.177843
0.523432 0.5 -0.525 0.203312
0.523432 0.5 0.525 0.199701
0 0.5 -0.743821 0.175102
0 0.5 0.743821 0.171396
0.0124865 0.5 -0.743821 0.175102
0.0124865 0.5 0.743821 0.171396
0.219992 0.5 0.7125 0.173561
0.219992 0.5 -0.7125 0.177264
0.715434 0.5 -0.225 0.240769
0.715434 0.5 0.225 0.238563
0 0.5 -0.75 0.1747
0 0.5 0.75 0.170973
0.67013 0.5 0.3375 0.226349
0.67013 0.5 -0.3375 0.229329
0.574156 0.5 -0.4875 0.209848
0.574156 0.5 0.4875 0.206267
0 0.5 -0.756179 0.174301
0 0.5 0.756179 0.170553
0.0124865 0.5 -0.756179 0.174301
0.0124865 0.5 0.756179 0.170553
0.756813 0.5 -0.0375 0.251267
0.756813 0.5 0.0375 0.250859
0.151149 0.5 -0.75 0.174742
0.151149 0.5 0.75 0.170962
0.756813 0.5 -0.1125 0.250394
0.756813 0.5 0.1125 0.249184
0.624316 0.5 -0.45 0.217114
0.624316 0.5 0.45 0.213552
0.715434 0.5 -0.3 0.237105
0.715434 0.5 0.3 0.234237
0.756813 0.5 0.1875 0.246279
0.756813 0.5 -0.1875 0.24826
0.67013 0.5 -0.4125 0.224509
0.67013 0.5 0.4125 0.220994
0.411736 0.5 -0.675 0.186088
0.411736 0.5 0.675 0.182121
0.467897 0.5 0.6375 0.18758
0.467897 0.5 -0.6375 0.191541
0.075776 0.5 -0.7875 0.172287
0.075776 0.5 0.7875 0.168431
0.350249 0.5 -0.7125 0.18081
0.350249 0.5 0.7125 0.176847
0.523432 0.5 -0.6 0.197832
0.523432 0.5 0.6 0.193853
0.797732 0.5 2.68882e-17 0.257685
0.756813 0.5 -0.2625 0.244919
0.756814 0.5 0.2625 0.242205
0.797732 0.5 0.0736268 0.256457
0.797732 0.5 -0.075 0.257438
0.288069 0.5 -0.75 0.176481
0.288069 0.5 0.75 0.172516
0.574156 0.5 -0.5625 0.204298
0.574157 0.5 0.5625 0.200316
0.715434 0.5 -0.375 0.232417
0.715434 0.5 0.375 0.228952
0.797732 0.5 -0.15 0.255827
0.797732 0.5 0.15 0.25411
0.624316 0.5 -0.525 0.211499
0.624316 0.5 0.525 0.207496
0.219992 0.5 -0.7875 0.172312
0.219992 0.5 0.7875 0.168354
0 0.5 -0.818821 0.170153
0 0.5 0.818821 0.166201
0.0124865 0.5 0.818821 0.166201
0.0124865 0.5 -0.818821 0.170153
0 0.5 -0.825 0.169731
0 0.5 0.825 0.16576
0.756813 0.5 0.3375 0.237061
0.756814 0.5 -0.3375 0.240438
0.67013 0.5 -0.4875 0.218881
0.67013 0.5 0.4875 0.21488
0.797732 0.5 -0.225 0.25289
0.797732 0.5 0.225 0.250371
0 0.5 -0.831179 0.169311
0 0.5 0.831179 0.165321
0.0124865 0.5 -0.831179 0.169311
0.0124865 0.5 0.831179 0.165321
0.835106 0.5 0.0375 0.263816
0.835106 0.5 -0.0375 0.264286
0.151149 0.5 -0.825 0.169716
0.151149 0.5 0.825 0.165694
0.835106 0.5 0.1125 0.2619
0.835106 0.5 -0.1125 0.263292
0.715434 0.5 -0.45 0.226812
0.715434 0.5 0.45 0.222811
0.797732 0.5 -0.3 0.2487
0.797732 0.5 0.3 0.245435
0.467897 0.5 0.7125 0.181507
0.467897 0.5 -0.7125 0.185766
0.523432 0.5 -0.675 0.191888
0.523432 0.5 0.675 0.187586
0.411736 0.5 -0.75 0.180463
0.411736 0.5 0.75 0.176218
0.835106 0.5 -0.1875 0.260858
0.835106 0.5 0.1875 0.258585
0.574156 0.5 -0.6375 0.198217
0.574157 0.5 0.6375 0.193885
0.350249 0.5 -0.7875 0.175358
0.350249 0.5 0.7875 0.171137
0.756813 0.5 -0.4125 0.23492
0.756814 0.5 0.4125 0.230953
0.075776 0.5 -0.8625 0.167192
0.075776 0.5 0.8625 0.163106
0.624316 0.5 0.6 0.200888
0.624316 0.5 -0.6 0.205274
0.872064 0.5 5.91974e-17 0.270834
0.870122 0.5 0.075 0.269064
0.288069 0.5 -0.825 0.171147
0.288069 0.5 0.825 0.166941
0.67013 0.5 -0.5625 0.212556
0.67013 0.5 0.5625 0.208132
0.872064 0.5 -0.075 0.270557
0.835106 0.5 -0.2625 0.257039
0.835106 0.5 0.2625 0.253945
0.797732 0.5 -0.375 0.243353
0.797732 0.5 0.375 0.23942
0.872064 0.5 0.14794 0.26676
0.872064 0.5 -0.15 0.268727
0.715434 0.5 -0.525 0.22041
0.715434 0.5 0.525 0.215938
0.219992 0.5 0.8625 0.162923
0.219993 0.5 -0.8625 0.167106
0 0.5 -0.893821 0.164975
0 0.5 0.893821 0.160804
0.0124865 0.5 -0.893821 0.164975
0.0124865 0.5 0.893821 0.160804
0 0.5 -0.9 0.164536
0 0.5 0.9 0.160348
0.756813 0.5 -0.4875 0.228501
0.756813 0.5 0.4875 0.224003
0.872064 0.5 -0.225 0.265389
0.872064 0.5 0.225 0.262512
0.835106 0.5 -0.3375 0.251943
0.835106 0.5 0.3375 0.248086
0 0.5 0.906179 0.159895
0 0.5 -0.906179 0.164099
0.0124865 0.5 -0.906179 0.164099
0.0124865 0.5 0.906179 0.159895
0.90582 0.5 -0.0375 0.277654
0.90582 0.5 0.0375 0.277116
0.151149 0.5 -0.9 0.164465
0.151149 0.5 0.9 0.160228
0.90582 0.5 -0.1125 0.276531
0.905821 0.5 0.1125 0.274937
0.523432 0.5 -0.75 0.185572
0.523432 0.5 0.75 0.180992
0.574156 0.5 -0.7125 0.191705
0.574156 0.5 0.7125 0.187072
0.797732 0.5 -0.45 0.236971
0.797732 0.5 0.45 0.232454
0.467897 0.5 0.7875 0.17515
0.467897 0.5 -0.7875 0.179668
0.624316 0.5 -0.675 0.19855
0.624316 0.5 0.675 0.193836
0.411736 0.5 -0.825 0.174556
0.411736 0.5 0.825 0.170071
0.872064 0.5 0.3 0.256911
0.872064 0.5 -0.3 0.260629
0.67013 0.5 -0.6375 0.205652
0.67013 0.5 0.6375 0.200869
0.90582 0.5 0.1875 0.271174
0.905821 0.5 -0.1875 0.273773
0.350249 0.5 -0.8625 0.169659
0.350249 0.5 0.8625 0.165215
0.835106 0.5 -0.4125 0.245676
0.835106 0.5 0.4125 0.241166
0.715434 0.5 -0.6 0.213338
0.715434 0.5 0.6 0.208469
0.939201 0.5 2.75387e-17 0.284007
0.075776 0.5 0.9375 0.157608
0.075776 0.5 -0.9375 0.161897
0.939111 0.5 0.075 0.282362
0.939201 0.5 -0.075 0.283706
0.756813 0.5 0.5625 0.216365
0.756814 0.5 -0.5625 0.221306
0.90582 0.5 0.2625 0.265918
0.905821 0.5 -0.2625 0.269447
0.288069 0.5 -0.9 0.165592
0.288069 0.5 0.9 0.161176
0.872064 0.5 -0.375 0.254564
0.872064 0.5 0.375 0.2501
0.939201 0.5 0.148627 0.279291
0.939201 0.5 -0.15 0.281654
0.797732 0.5 -0.525 0.229702
0.797732 0.5 0.525 0.224683
0.219992 0.5 0.9375 0.15732
0.219992 0.5 -0.9375 0.161702
0.939201 0.5 -0.225 0.277903
0.939201 0.5 0.225 0.274605
0.905821 0.5 -0.3375 0.263671
0.90582 0.5 0.3375 0.259295
0.835106 0.5 -0.4875 0.238386
0.835106 0.5 0.4875 0.233317
0 0.5 0.968821 0.155255
0 0.5 -0.968821 0.159617
0.0124865 0.5 -0.968821 0.159617
0.0124865 0.5 0.968821 0.155255
0.969689 0.5 -0.0375 0.290744
0.969689 0.5 0.0375 0.290122
0.574156 0.5 -0.7875 0.184864
0.574156 0.5 0.7875 0.179976
0 0.5 -0.975 0.159166
0 0.5 0.975 0.154789
0.624316 0.5 -0.75 0.191439
0.624316 0.5 0.75 0.18645
0.969689 0.5 -0.1125 0.289502
0.96969 0.5 0.1125 0.287662
0.523432 0.5 -0.825 0.178973
0.523432 0.5 0.825 0.174157
0.67013 0.5 0.7125 0.193211
0.67013 0.5 -0.7125 0.198295
0 0.5 -0.981179 0.158717
0 0.5 0.981179 0.154326
0.467897 0.5 0.8625 0.168588
0.467897 0.5 -0.8625 0.173327
0.0124865 0.5 -0.981179 0.158717
0.0124865 0.5 0.981179 0.154326
0.872064 0.5 -0.45 0.247336
0.872064 0.5 0.45 0.242237
0.715434 0.5 -0.675 0.205731
0.715434 0.5 0.675 0.200532
0.939201 0.5 -0.3 0.272546
0.939201 0.5 0.3 0.268304
0.151149 0.5 0.975 0.154616
0.151149 0.5 -0.975 0.159039
0.969689 0.5 -0.1875 0.286427
0.969689 0.5 0.1875 0.283432
0.756813 0.5 -0.6375 0.213482
0.756813 0.5 0.6375 0.208177
0.411736 0.5 -0.9 0.16844
0.411736 0.5 0.9 0.163749
0.90582 0.5 -0.4125 0.256574
0.90582 0.5 0.4125 0.251483
0.995005 0.5 0.0749309 0.293864
0.797732 0.5 -0.6 0.221699
0.797732 0.5 0.6 0.216268
1.00005 0.5 -8.47123e-18 0.296823
0.350249 0.5 -0.9375 0.163777
0.350249 0.5 0.9375 0.159142
1.00005 0.5 -0.0749309 0.296491
0.969689 0.5 -0.2625 0.281595
0.969689 0.5 0.2625 0.277538
0.835106 0.5 -0.5625 0.23025
0.835106 0.5 0.5625 0.224706
1.00005 0.5 -0.149862 0.294192
0.939201 0.5 -0.375 0.265717
0.939201 0.5 0.375 0.260652
1.00029 0.5 0.148988 0.291446
0.075776 0.5 -1.0125 0.156452
0.075776 0.5 1.0125 0.151986
0.288069 0.5 0.975 0.15528
0.288069 0.5 -0.975 0.159875
0.872064 0.5 -0.525 0.239128
0.872064 0.5 0.525 0.233491
1.00005 0.5 0.224793 0.286265
1.00005 0.5 -0.224793 0.289988
0.969689 0.5 0.3375 0.27013
0.96969 0.5 -0.3375 0.275119
1.0271 0.5 -0.0368226 0.30367
1.0271 0.5 0.0368226 0.302976
0.90582 0.5 0.4875 0.242647
0.905821 0.5 -0.4875 0.248351
1.0271 0.5 -0.110468 0.302314
1.0271 0.5 0.110468 0.300141
0.67013 0.5 0.7875 0.185274
0.67013 0.5 -0.7875 0.190604
0.624316 0.5 0.825 0.178835
0.624316 0.5 -0.825 0.18405
0.219993 0.5 -1.0125 0.156152
0.219993 0.5 1.0125 0.1516
0.574156 0.5 -0.8625 0.177791
0.574156 0.5 0.8625 0.172691
0.715434 0.5 -0.75 0.197726
0.715434 0.5 0.75 0.192258
0.756813 0.5 0.7125 0.199581
0.756814 0.5 -0.7125 0.205182
0.523432 0.5 -0.9 0.172179
0.523432 0.5 0.9 0.167165
0.939201 0.5 -0.45 0.257603
0.939201 0.5 0.45 0.251835
1.04168 0.5 0 0.307166
1.0271 0.5 -0.184113 0.298939
1.0271 0.5 0.184113 0.295607
0 0.5 -1.04382 0.154132
0 0.5 1.04382 0.149604
0.0124865 0.5 -1.04382 0.154132
0.0124865 0.5 1.04382 0.149604
1.00005 0.5 -0.299723 0.283983
1.00005 0.5 0.299723 0.27921
1.04168 0.5 -0.0729162 0.306846
1.04168 0.5 0.0729162 0.305438
0.797732 0.5 -0.675 0.213125
0.797732 0.5 0.675 0.207368
0.467897 0.5 0.9375 0.161894
0.467897 0.5 -0.9375 0.16682
0 0.5 -1.05 0.153673
0 0.5 1.05 0.149132
0.835106 0.5 -0.6375 0.221432
0.835106 0.5 0.6375 0.215526
1.04168 0.5 -0.145832 0.304478
1.04168 0.5 0.145832 0.301718
0.969689 0.5 -0.4125 0.267175
0.96969 0.5 0.4125 0.261394
0 0.5 -1.05618 0.153216
0 0.5 1.05618 0.148663
0.0124865 0.5 -1.05618 0.153216
0.0124865 0.5 1.05618 0.148663
1.05695 0.5 -0.0360764 0.311292
1.05695 0.5 0.0360764 0.310573
0.411736 0.5 -0.975 0.162183
0.411736 0.5 0.975 0.15732
0.872064 0.5 -0.6 0.230119
0.872064 0.5 0.6 0.224062
1.0271 0.5 -0.257759 0.293639
1.0271 0.5 0.257759 0.289126
0.151149 0.5 -1.05 0.153494
0.151149 0.5 1.05 0.148911
1.05695 0.5 0.108229 0.308488
1.05695 0.5 -0.108229 0.309939
1.04168 0.5 -0.218749 0.300124
1.04168 0.5 0.218749 0.2961
0.90582 0.5 -0.5625 0.239205
0.905821 0.5 0.5625 0.232996
1.00005 0.5 -0.374654 0.27634
1.00005 0.5 0.374654 0.270656
0.350249 0.5 1.0125 0.15298
0.350249 0.5 -1.0125 0.157776
1.05695 0.5 -0.180382 0.306546
1.05695 0.5 0.180382 0.303097
1.07319 0.5 0.0709442 0.313043
0.939201 0.5 -0.525 0.248423
0.939201 0.5 0.525 0.242069
1.0271 0.5 -0.331404 0.28654
1.0271 0.5 0.331404 0.280992
1.08112 0.5 3.23815e-17 0.317426
1.04168 0.5 -0.291665 0.293891
1.04168 0.5 0.291665 0.288731
1.08112 0.5 -0.0709442 0.317139
0.969689 0.5 -0.4875 0.258016
0.96969 0.5 0.4875 0.251542
1.05695 0.5 0.252535 0.296531
1.05695 0.5 -0.252535 0.301206
0.288069 0.5 -1.05 0.154056
0.288069 0.5 1.05 0.149308
0.075776 0.5 -1.0875 0.150909
0.075776 0.5 1.0875 0.146294
1.08112 0.5 -0.141888 0.314775
1.08145 0.5 0.140165 0.311484
0.715434 0.5 0.825 0.183775
0.715434 0.5 -0.825 0.189453
0.756813 0.5 0.7875 0.19072
0.756814 0.5 -0.7875 0.196552
0.67013 0.5 -0.8625 0.182696
0.67013 0.5 0.8625 0.177172
0.797732 0.5 -0.75 0.204145
0.797732 0.5 0.75 0.198136
0.624316 0.5 -0.9 0.176487
0.624316 0.5 0.9 0.171089
1.00005 0.5 -0.449585 0.267281
1.00005 0.5 0.449585 0.26083
0.835106 0.5 -0.7125 0.212119
0.835106 0.5 0.7125 0.205931
0.574156 0.5 -0.9375 0.170576
0.574157 0.5 0.9375 0.165303
1.10076 0.5 -0.0349809 0.323161
1.10076 0.5 0.0349809 0.322371
1.08112 0.5 -0.212832 0.310394
1.08112 0.5 0.212832 0.306111
0.872064 0.5 -0.675 0.220501
0.872064 0.5 0.675 0.214133
1.04168 0.5 -0.364581 0.285946
1.04168 0.5 0.364581 0.279799
1.0271 0.5 0.405049 0.271418
1.0271 0.5 -0.405049 0.277859
1.05695 0.5 -0.324688 0.294036
1.05695 0.5 0.324688 0.28829
1.10076 0.5 -0.104943 0.321849
1.10076 0.5 0.104943 0.319513
0.523432 0.5 0.975 0.160093
0.523432 0.5 -0.975 0.165271
0.90582 0.5 0.6375 0.222762
0.905821 0.5 -0.6375 0.229306
0.219992 0.5 1.0875 0.14582
0.219992 0.5 -1.0875 0.150514
1.11376 0.5 3.81639e-17 0.326245
0.939201 0.5 0.6 0.231597
0.939201 0.5 -0.6 0.238377
1.10076 0.5 -0.174905 0.318458
1.10076 0.5 0.174905 0.314663
0.467897 0.5 -1.0125 0.160219
0.467897 0.5 1.0125 0.155138
1.11376 0.5 -0.0693118 0.325996
1.11376 0.5 0.0693118 0.324392
1.08112 0.5 0.283777 0.298602
1.08112 0.5 -0.283777 0.304096
0 0.5 -1.11882 0.148569
0 0.5 1.11882 0.1439
0.0124865 0.5 -1.11882 0.148569
0.0124865 0.5 1.11882 0.1439
0.969689 0.5 -0.5625 0.247855
0.969689 0.5 0.5625 0.240851
1.11376 0.5 0.138624 0.320096
1.11376 0.5 -0.138624 0.323638
0 0.5 -1.125 0.148106
0 0.5 1.125 0.143427
1.10076 0.5 0.244866 0.307932
1.10076 0.5 -0.244866 0.313077
0.411736 0.5 -1.05 0.155852
0.411736 0.5 1.05 0.150844
1.05695 0.5 -0.396841 0.285245
1.05695 0.5 0.396841 0.278578
1.00005 0.5 -0.524516 0.25704
1.00005 0.5 0.524516 0.249984
1.04168 0.5 -0.437497 0.276505
1.04168 0.5 0.437497 0.269544
0 0.5 -1.13118 0.147645
0 0.5 1.13118 0.142955
0.0124865 0.5 -1.13118 0.147645
0.0124865 0.5 1.13118 0.142955
1.11376 0.5 -0.207935 0.319226
1.11376 0.5 0.207935 0.314639
1.0271 0.5 -0.478694 0.267817
1.0271 0.5 0.478694 0.260666
0.151149 0.5 -1.125 0.147878
0.151149 0.5 1.125 0.14316
1.08112 0.5 -0.354722 0.296037
1.08112 0.5 0.354722 0.289496
1.13882 0.5 -0.0340295 0.333512
1.13882 0.5 0.0340295 0.332668
0.350249 0.5 -1.0875 0.151715
0.350249 0.5 1.0875 0.146782
1.13882 0.5 -0.102088 0.332208
1.13882 0.5 0.102088 0.329927
1.10076 0.5 -0.314829 0.305806
1.10076 0.5 0.314829 0.299485
0.756813 0.5 -0.8625 0.18773
0.756814 0.5 0.8625 0.181725
0.797732 0.5 -0.825 0.194914
0.797732 0.5 0.825 0.188721
1.11376 0.5 -0.277247 0.312852
1.11376 0.5 0.277247 0.30697
0.835106 0.5 0.7875 0.196093
0.835106 0.5 -0.7875 0.202484
0.715434 0.5 -0.9 0.181033
0.715434 0.5 0.9 0.175196
0.872064 0.5 -0.75 0.210481
0.872064 0.5 0.75 0.203877
1.13882 0.5 0.170147 0.324709
1.13882 0.5 -0.170147 0.328771
0.67013 0.5 -0.9375 0.174679
0.67013 0.5 0.9375 0.169005
0.905821 0.5 -0.7125 0.218904
0.905821 0.5 0.7125 0.212092
1.05695 0.5 0.468994 0.267661
1.05695 0.5 -0.468994 0.275041
0.939201 0.5 -0.675 0.227686
0.939201 0.5 0.675 0.220619
0.624316 0.5 0.975 0.163302
0.624316 0.5 -0.975 0.168843
1.04168 0.5 -0.510414 0.265803
1.04168 0.5 0.510414 0.258219
0.969689 0.5 -0.6375 0.236909
0.96969 0.5 0.6375 0.22957
0.288069 0.5 -1.125 0.148182
0.288069 0.5 1.125 0.143307
1.16179 0.5 5.78241e-19 0.339932
1.08112 0.5 0.425666 0.279023
1.08112 0.5 -0.425666 0.286419
1.13882 0.5 -0.238206 0.323286
1.13882 0.5 0.238206 0.317779
1.16179 0.5 0.0669104 0.338896
1.16179 0.5 -0.0669104 0.339718
0.574156 0.5 -1.0125 0.1633
0.574156 0.5 1.0125 0.157889
0.075776 0.5 -1.1625 0.145317
0.075776 0.5 1.1625 0.140575
1.00005 0.5 -0.599447 0.245874
1.00005 0.5 0.599447 0.238389
1.10076 0.5 0.384791 0.28952
1.10076 0.5 -0.384791 0.296847
1.0271 0.5 -0.55234 0.256655
1.0271 0.5 0.55234 0.248989
1.11376 0.5 -0.346559 0.304668
1.11376 0.5 0.346559 0.297665
1.16179 0.5 -0.133821 0.337329
1.16179 0.5 0.133821 0.333992
0.523432 0.5 -1.05 0.15832
0.523432 0.5 1.05 0.153012
1.17463 0.5 -0.0331343 0.343902
1.17463 0.5 0.0331343 0.342997
1.17463 0.5 -0.0994029 0.342614
1.17463 0.5 0.0994029 0.339928
1.16179 0.5 -0.200731 0.332813
1.16179 0.5 0.200731 0.327843
1.13882 0.5 -0.306265 0.315852
1.13882 0.5 0.306265 0.309084
0.219992 0.5 -1.1625 0.144824
0.219992 0.5 1.1625 0.140009
0.467897 0.5 -1.0875 0.15359
0.467897 0.5 1.0875 0.148384
1.17463 0.5 0.165672 0.334772
1.17463 0.5 -0.165672 0.339135
1.05695 0.5 -0.541147 0.263691
1.05695 0.5 0.541147 0.255779
1.18772 0.5 -5.78241e-19 0.347405
1.11376 0.5 -0.41587 0.29487
1.11376 0.5 0.41587 0.286953
1.18772 0.5 -0.065614 0.34723
1.18772 0.5 0.065614 0.345184
1.08112 0.5 -0.49661 0.27549
1.08112 0.5 0.49661 0.267436
1.10076 0.5 -0.454752 0.286397
1.10076 0.5 0.454752 0.278295
1.18534 0.5 0.118202 0.34123
1.16179 0.5 -0.267642 0.326258
1.16179 0.5 0.267642 0.319881
0 0.5 -1.19382 0.142975
0 0.5 1.19382 0.138188
0.0124865 0.5 1.19382 0.138188
0.0124865 0.5 -1.19382 0.142975
1.04168 0.5 -0.58333 0.254113
1.04168 0.5 0.58333 0.246091
1.18772 0.5 -0.131228 0.344846
1.17463 0.5 -0.23194 0.333556
1.17463 0.5 0.23194 0.327635
0.411736 0.5 -1.125 0.149501
0.411736 0.5 1.125 0.144377
1.13882 0.5 -0.374324 0.306664
1.13882 0.5 0.374324 0.298818
0 0.5 -1.2 0.142512
0 0.5 1.2 0.137716
0.905821 0.5 0.7875 0.201212
0.905821 0.5 -0.7875 0.208212
0.872064 0.5 -0.825 0.20024
0.872064 0.5 0.825 0.193481
0.835106 0.5 0.8625 0.186166
0.835106 0.5 -0.8625 0.192689
0.939201 0.5 -0.75 0.216592
0.939201 0.5 0.75 0.209329
0.797732 0.5 -0.9 0.185575
0.797732 0.5 0.9 0.179257
1.0271 0.5 0.625985 0.236663
1.0271 0.5 -0.625985 0.24469
0.969689 0.5 0.7125 0.217877
0.96969 0.5 -0.7125 0.225427
1.18772 0.5 -0.196842 0.340299
1.18772 0.5 0.196842 0.335022
0.756814 0.5 -0.9375 0.178838
0.756814 0.5 0.9375 0.172715
0 0.5 1.20618 0.137246
0 0.5 -1.20618 0.14205
1.00005 0.5 -0.674378 0.234051
1.00005 0.5 0.674378 0.226291
0.0124865 0.5 1.20618 0.137246
0.0124865 0.5 -1.20618 0.14205
1.16179 0.5 -0.334552 0.317808
1.16179 0.5 0.334552 0.310216
0.715434 0.5 0.975 0.166625
0.715434 0.5 -0.975 0.172576
0.151149 0.5 -1.2 0.142231
0.151149 0.5 1.2 0.137399
1.20942 0.5 0.0322645 0.353735
1.20942 0.5 -0.0322645 0.354627
1.17463 0.5 -0.298209 0.325962
1.17463 0.5 0.298209 0.318682
1.20942 0.5 -0.0967935 0.353364
1.20942 0.5 0.0967935 0.350495
0.350249 0.5 -1.1625 0.145632
0.350249 0.5 1.1625 0.140591
0.67013 0.5 1.0125 0.160862
0.67013 0.5 -1.0125 0.166649
1.11376 0.5 0.485183 0.275089
1.11376 0.5 -0.485183 0.283712
1.18772 0.5 0.262456 0.326899
1.18772 0.5 -0.262456 0.333673
1.10076 0.5 -0.524714 0.274762
1.10076 0.5 0.524714 0.266056
1.20942 0.5 -0.161322 0.34986
1.20942 0.5 0.161322 0.3452
1.08112 0.5 -0.567554 0.263521
1.08112 0.5 0.567554 0.255005
0.624316 0.5 -1.05 0.161201
0.624316 0.5 1.05 0.155552
1.13882 0.5 -0.442383 0.295923
1.13882 0.5 0.442383 0.28724
1.05695 0.5 0.6133 0.243221
1.05695 0.5 -0.6133 0.251475
1.16179 0.5 -0.401463 0.30766
1.16179 0.5 0.401463 0.299072
0.574156 0.5 -1.0875 0.15604
0.574156 0.5 1.0875 0.150521
1.17463 0.5 0.364477 0.308105
1.17463 0.5 -0.364477 0.316548
1.20942 0.5 -0.225851 0.34421
1.20942 0.5 0.225851 0.337881
1.23036 0.5 -1.32995e-17 0.361056
1.2294 0.5 0.0634819 0.358352
1.04168 0.5 -0.656246 0.241734
1.04168 0.5 0.656246 0.233431
1.23036 0.5 -0.0634819 0.360915
1.18772 0.5 0.32807 0.317036
1.18772 0.5 -0.32807 0.325106
0.288069 0.5 -1.2 0.142293
0.288069 0.5 1.2 0.137314
1.23036 0.5 -0.126964 0.358514
1.23036 0.5 0.126964 0.354673
0.075776 0.5 -1.2375 0.13972
0.075776 0.5 1.2375 0.134871
0.523432 0.5 -1.125 0.151394
0.523432 0.5 1.125 0.145984
1.0271 0.5 -0.69963 0.232197
1.0271 0.5 0.69963 0.223953
1.24274 0.5 0.0314313 0.364435
1.24274 0.5 -0.0314313 0.365461
1.20942 0.5 0.29038 0.328699
1.20942 0.5 -0.29038 0.336484
1.11376 0.5 -0.554494 0.271472
1.11376 0.5 0.554494 0.262347
1.23036 0.5 -0.190445 0.353889
1.23036 0.5 0.190445 0.348284
1.24274 0.5 -0.0942942 0.364235
1.24274 0.5 0.0942942 0.361164
1.13882 0.5 0.510442 0.274607
1.13882 0.5 -0.510442 0.283927
0.969689 0.5 -0.7875 0.213662
0.969689 0.5 0.7875 0.205991
1.00005 0.5 -0.749309 0.221844
1.00005 0.5 0.749309 0.213918
0.939201 0.5 -0.825 0.205313
0.939201 0.5 0.825 0.197939
0.90582 0.5 0.8625 0.190309
0.90582 0.5 -0.8625 0.197409
1.17463 0.5 -0.430746 0.305514
1.17463 0.5 0.430746 0.296165
1.10076 0.5 -0.594676 0.262185
1.10076 0.5 0.594676 0.253104
1.18772 0.5 -0.393684 0.314793
1.18772 0.5 0.393684 0.30566
1.24274 0.5 -0.157157 0.360714
1.24274 0.5 0.157157 0.355732
1.16179 0.5 -0.468373 0.29606
1.16179 0.5 0.468373 0.286711
0.467897 0.5 -1.1625 0.146993
0.467897 0.5 1.1625 0.14169
0.872064 0.5 -0.9 0.189942
0.872064 0.5 0.9 0.183093
1.25401 0.5 2.08167e-17 0.368438
0.835106 0.5 0.9375 0.176278
0.835106 0.5 -0.9375 0.182882
1.25401 0.5 -0.0622994 0.368343
1.25401 0.5 0.0622994 0.366195
1.08112 0.5 -0.638498 0.250798
1.08112 0.5 0.638498 0.242003
1.23036 0.5 -0.253927 0.347119
1.23036 0.5 0.253927 0.339921
0.219992 0.5 1.2375 0.134207
0.219992 0.5 -1.2375 0.139124
1.25309 0.5 0.121964 0.361897
1.05695 0.5 0.685452 0.230238
1.05695 0.5 -0.685452 0.2387
0.797732 0.5 0.975 0.169862
0.797732 0.5 -0.975 0.176255
1.25401 0.5 -0.124599 0.365962
1.20942 0.5 -0.354909 0.326871
1.20942 0.5 0.354909 0.31784
1.24274 0.5 -0.220019 0.355005
1.24274 0.5 0.220019 0.348233
0.756814 0.5 -1.0125 0.169988
0.756813 0.5 1.0125 0.163789
1.25401 0.5 -0.186898 0.361324
1.25401 0.5 0.186898 0.355392
0.411736 0.5 -1.2 0.14318
0.411736 0.5 1.2 0.137965
0 0.5 -1.26882 0.13739
0 0.5 1.26882 0.132505
0.0124865 0.5 1.26882 0.132505
0.0124865 0.5 -1.26882 0.13739
0.715434 0.5 -1.05 0.164178
0.715434 0.5 1.05 0.15815
1.23036 0.5 -0.31741 0.338328
1.23036 0.5 0.31741 0.329754
1.04168 0.5 -0.729162 0.228967
1.04168 0.5 0.729162 0.220495
1.18772 0.5 -0.459298 0.302976
1.18772 0.5 0.459298 0.293031
1.24274 0.5 -0.282882 0.347158
1.24274 0.5 0.282882 0.338823
0 0.5 -1.275 0.136929
0 0.5 1.275 0.132037
1.27472 0.5 -0.0306319 0.376315
1.27472 0.5 0.0306319 0.375232
1.17463 0.5 0.497015 0.283123
1.17463 0.5 -0.497015 0.293149
1.11376 0.5 -0.623806 0.258431
1.11376 0.5 0.623806 0.249012
1.13882 0.5 -0.578501 0.27095
1.13882 0.5 0.578501 0.261221
0.67013 0.5 -1.0875 0.158685
0.67013 0.5 1.0875 0.152823
1.27472 0.5 -0.0918959 0.375129
1.27472 0.5 0.0918959 0.370292
1.25401 0.5 -0.249197 0.354507
1.25401 0.5 0.249197 0.346883
1.16179 0.5 -0.535284 0.283305
1.16179 0.5 0.535284 0.273413
1.20942 0.5 -0.419438 0.315572
1.20942 0.5 0.419438 0.305562
0 0.5 -1.28118 0.13647
0 0.5 1.28118 0.131571
0.0124865 0.5 1.28118 0.131571
0.0124865 0.5 -1.28118 0.13647
1.27472 0.5 0.15316 0.366308
1.27472 0.5 -0.15316 0.371596
0.151149 0.5 -1.275 0.136598
0.151149 0.5 1.275 0.131672
1.0271 0.5 0.773275 0.211098
1.0271 0.5 -0.773275 0.219467
1.10076 0.5 0.664638 0.239695
1.10076 0.5 -0.664638 0.248974
0.350249 0.5 -1.2375 0.139573
0.350249 0.5 1.2375 0.134445
0.624316 0.5 -1.125 0.153634
0.624316 0.5 1.125 0.147907
1.23036 0.5 0.380892 0.317999
1.23036 0.5 -0.380892 0.327708
1.24274 0.5 -0.345745 0.337355
1.24274 0.5 0.345745 0.327685
1.2906 0.5 0 0.381437
1.2906 0.5 -0.0604698 0.381421
1.2906 0.5 0.0604698 0.379168
1.25401 0.5 -0.311497 0.345622
1.25401 0.5 0.311497 0.336536
1.27472 0.5 -0.214423 0.365832
1.27472 0.5 0.214423 0.358644
1.08112 0.5 0.709442 0.228694
1.08112 0.5 -0.709442 0.237645
1.00005 0.5 -0.824239 0.209505
1.00005 0.5 0.824239 0.201508
1.2906 0.5 -0.12094 0.379077
1.2906 0.5 0.12094 0.374638
0.574156 0.5 -1.1625 0.148856
0.574156 0.5 1.1625 0.143258
0.969689 0.5 -0.8625 0.201837
0.96969 0.5 0.8625 0.194135
1.18772 0.5 0.524912 0.279431
1.18772 0.5 -0.524912 0.289958
1.05695 0.5 -0.757605 0.225685
1.05695 0.5 0.757605 0.2171
0.939201 0.5 -0.9 0.194038
0.939201 0.5 0.9 0.186624
1.30091 0.5 -0.0299772 0.385607
1.30091 0.5 0.0299772 0.384469
1.20942 0.5 -0.483967 0.302858
1.20942 0.5 0.483967 0.292134
1.17463 0.5 -0.563284 0.279759
1.17463 0.5 0.563284 0.269283
1.2906 0.5 -0.181409 0.374418
1.2906 0.5 0.181409 0.36794
0.90582 0.5 0.9375 0.179509
0.90582 0.5 -0.9375 0.186657
1.30091 0.5 -0.0899316 0.384469
1.30091 0.5 0.0899316 0.379037
1.27472 0.5 0.275687 0.34902
1.27472 0.5 -0.275687 0.357877
0.288069 0.5 -1.275 0.136433
0.288069 0.5 1.275 0.131371
0.872064 0.5 -0.975 0.179728
0.872064 0.5 0.975 0.172844
1.23036 0.5 -0.444373 0.315487