# pMean  POINT_DATA 63140
# x  y  z  pMean
0 0.1 0 0.229259
0 0.1 -0.0179898 0.229325
0 0.1 0.0179898 0.229197
0.0363518 0.1 0.0179898 0.229197
0.0363518 0.1 -0.0179898 0.229325
0 0.1 -0.0570102 0.229306
0 0.1 0.0570102 0.228907
0.0363518 0.1 0.0570102 0.228907
0.0363518 0.1 -0.0570102 0.229306
0 0.1 -0.075 0.229221
0 0.1 0.075 0.228702
0.075776 0.1 -0.0375 0.229399
0.075776 0.1 0.0375 0.229131
0 0.1 -0.0929898 0.229141
0 0.1 0.0929898 0.228501
0.0363518 0.1 -0.0929898 0.229141
0.0363518 0.1 0.0929898 0.228501
0 0.1 -0.13201 0.228799
0 0.1 0.13201 0.22791
0.075776 0.1 -0.1125 0.229055
0.075776 0.1 0.1125 0.228284
0.0363518 0.1 -0.13201 0.228799
0.0363518 0.1 0.13201 0.22791
0 0.1 -0.15 0.228566
0 0.1 0.15 0.227567
0.150379 0.1 -2.22623e-17 0.221556
0 0.1 -0.16799 0.228336
0 0.1 0.16799 0.227227
0.150379 0.1 -0.075 0.221451
0.150379 0.1 0.075 0.220967
0.0363518 0.1 -0.16799 0.228336
0.0363518 0.1 0.16799 0.227227
0.075776 0.1 -0.1875 0.228088
0.075776 0.1 0.1875 0.22686
0 0.1 -0.20701 0.227654
0 0.1 0.20701 0.226316
0.0363518 0.1 -0.20701 0.227654
0.0363518 0.1 0.20701 0.226316
0.150379 0.1 -0.15 0.220628
0.150379 0.1 0.15 0.219688
0.219993 0.1 -0.0375 0.21431
0.219993 0.1 0.0375 0.214099
0 0.1 -0.225 0.227257
0 0.1 0.225 0.225818
0 0.1 -0.24299 0.226864
0 0.1 0.24299 0.225323
0.0363518 0.1 0.24299 0.225323
0.0363518 0.1 -0.24299 0.226864
0.219993 0.1 -0.1125 0.213761
0.219993 0.1 0.1125 0.21307
0.150379 0.1 -0.225 0.219076
0.150379 0.1 0.225 0.217708
0.075776 0.1 -0.2625 0.226438
0.075776 0.1 0.2625 0.224787
0 0.1 -0.28201 0.225831
0 0.1 0.28201 0.224075
0.0363518 0.1 -0.28201 0.225831
0.0363518 0.1 0.28201 0.224075
0.287374 0.1 -2.89121e-19 0.217602
0.219992 0.1 0.1875 0.211268
0.219992 0.1 -0.1875 0.212345
0.287374 0.1 -0.075 0.217459
0.287374 0.1 0.075 0.216966
0 0.1 -0.3 0.225276
0 0.1 0.3 0.223423
0 0.1 0.31799 0.222773
0 0.1 -0.31799 0.224722
0.0363518 0.1 -0.31799 0.224722
0.0363518 0.1 0.31799 0.222773
0.287374 0.1 0.15 0.215547
0.287374 0.1 -0.15 0.216516
0.150379 0.1 -0.3 0.216847
0.150379 0.1 0.3 0.215044
0.219993 0.1 0.2625 0.208669
0.219993 0.1 -0.2625 0.210191
0.075776 0.1 -0.3375 0.224123
0.075776 0.1 0.3375 0.222069
0.350249 0.1 -0.0375 0.220989
0.350249 0.1 0.0375 0.220715
0 0.1 -0.35701 0.223357
0 0.1 0.35701 0.221201
0.0363518 0.1 -0.35701 0.223357
0.0363518 0.1 0.35701 0.221201
0.287374 0.1 -0.225 0.214785
0.287374 0.1 0.225 0.213355
0.350249 0.1 -0.1125 0.220478
0.350249 0.1 0.1125 0.219685
0 0.1 -0.375 0.222655
0 0.1 0.375 0.220404
0 0.1 -0.39299 0.221953
0 0.1 0.39299 0.219608
0.0363518 0.1 -0.39299 0.221953
0.0363518 0.1 0.39299 0.219608
0.350249 0.1 -0.1875 0.219181
0.350249 0.1 0.1875 0.217872
0.219992 0.1 -0.3375 0.207416
0.219992 0.1 0.3375 0.205425
0.150379 0.1 0.375 0.211769
0.150379 0.1 -0.375 0.213998
0.411108 0.1 4.33681e-19 0.226347
0.287374 0.1 -0.3 0.212335
0.287374 0.1 0.3 0.210439
0.411108 0.1 -0.075 0.226186
0.411108 0.1 0.075 0.225641
0.075776 0.1 -0.4125 0.221195
0.075776 0.1 0.4125 0.218747
0 0.1 0.43201 0.217735
0 0.1 -0.43201 0.220277
0.0363518 0.1 0.43201 0.217735
0.0363518 0.1 -0.43201 0.220277
0.411108 0.1 -0.15 0.225156
0.411108 0.1 0.15 0.224074
0.350249 0.1 -0.2625 0.217118
0.350249 0.1 0.2625 0.215316
0 0.1 -0.45 0.219435
0 0.1 0.45 0.216807
0.219992 0.1 0.4125 0.201633
0.219992 0.1 -0.4125 0.204057
0 0.1 -0.46799 0.218594
0 0.1 0.46799 0.215879
0.411108 0.1 -0.225 0.223276
0.411108 0.1 0.225 0.221671
0.467897 0.1 -0.0375 0.231756
0.467897 0.1 0.0375 0.231479
0.0363518 0.1 0.46799 0.215879
0.0363518 0.1 -0.46799 0.218594
0.287374 0.1 -0.375 0.209222
0.287374 0.1 0.375 0.206881
0.150379 0.1 0.45 0.207945
0.150379 0.1 -0.45 0.210576
0.467897 0.1 0.1125 0.230238
0.467897 0.1 -0.1125 0.231075
0.350249 0.1 -0.3375 0.214309
0.350249 0.1 0.3375 0.212053
0.075776 0.1 -0.4875 0.217684
0.075776 0.1 0.4875 0.214875
0.467897 0.1 0.1875 0.228066
0.467897 0.1 -0.1875 0.229452
0 0.1 -0.50701 0.216629
0 0.1 0.50701 0.213731
0.0363518 0.1 -0.50701 0.216629
0.0363518 0.1 0.50701 0.213731
0.411108 0.1 0.3 0.218482
0.411108 0.1 -0.3 0.220585
0.522865 0.1 1.41031e-17 0.238171
0 0.1 -0.525 0.21566
0 0.1 0.525 0.21268
0.522865 0.1 -0.075 0.237951
0.522865 0.1 0.075 0.23736
0.287374 0.1 0.45 0.202736
0.287374 0.1 -0.45 0.2055
0.219992 0.1 0.4875 0.197344
0.219992 0.1 -0.4875 0.200185
0.467897 0.1 -0.2625 0.226934
0.467897 0.1 0.2625 0.225015
0.350249 0.1 -0.4125 0.210806
0.350249 0.1 0.4125 0.208122
0 0.1 -0.54299 0.214692
0 0.1 0.54299 0.211629
0.522865 0.1 0.15 0.235531
0.522865 0.1 -0.15 0.236709
0.0363518 0.1 0.54299 0.211629
0.0363518 0.1 -0.54299 0.214692
0.150379 0.1 -0.525 0.206641
0.150379 0.1 0.525 0.203639
0.411108 0.1 -0.375 0.217128
0.411108 0.1 0.375 0.214558
0.075776 0.1 -0.5625 0.213644
0.075776 0.1 0.5625 0.210493
0.522865 0.1 -0.225 0.234474
0.522865 0.1 0.225 0.232728
0.574156 0.1 0.0375 0.244316
0.574157 0.1 -0.0375 0.24463
0.467897 0.1 -0.3375 0.223581
0.467897 0.1 0.3375 0.221152
0 0.1 -0.58201 0.212468
0 0.1 0.58201 0.209234
0.0363518 0.1 -0.58201 0.212468
0.0363518 0.1 0.58201 0.209234
0.574157 0.1 -0.1125 0.24384
0.574157 0.1 0.1125 0.242906
0.287374 0.1 -0.525 0.201239
0.287374 0.1 0.525 0.19808
0 0.1 -0.6 0.211387
0 0.1 0.6 0.208078
0.350249 0.1 0.4875 0.203564
0.350249 0.1 -0.4875 0.206658
0.522865 0.1 -0.3 0.231299
0.522865 0.1 0.3 0.229012
0.219992 0.1 -0.5625 0.195884
0.219992 0.1 0.5625 0.192679
0.574156 0.1 -0.1875 0.241973
0.574156 0.1 0.1875 0.240423
0.411108 0.1 0.45 0.209956
0.411108 0.1 -0.45 0.212964
0 0.1 -0.61799 0.210306
0 0.1 0.61799 0.206922
0.150379 0.1 -0.6 0.202249
0.150379 0.1 0.6 0.198909
0.0363518 0.1 -0.61799 0.210306
0.0363518 0.1 0.61799 0.206922
0.467897 0.1 -0.4125 0.219443
0.467897 0.1 0.4125 0.21654
0.623803 0.1 2.34188e-17 0.251929
0.623803 0.1 0.075 0.251003
0.623803 0.1 -0.075 0.251667
0.574156 0.1 0.2625 0.236933
0.574156 0.1 -0.2625 0.239054
0.623803 0.1 0.15 0.248905
0.623803 0.1 -0.15 0.250223
0.075776 0.1 0.6375 0.205671
0.075776 0.1 -0.6375 0.209137
0.522865 0.1 -0.375 0.227252
0.522865 0.1 0.375 0.224454
0 0.1 0.65701 0.204314
0 0.1 -0.65701 0.207855
0.0363518 0.1 0.65701 0.204314
0.0363518 0.1 -0.65701 0.207855
0.350249 0.1 0.5625 0.198468
0.350249 0.1 -0.5625 0.20195
0.623803 0.1 0.225 0.245683
0.623803 0.1 -0.225 0.247631
0.287374 0.1 -0.6 0.196504
0.287374 0.1 0.6 0.192989
0.574157 0.1 -0.3375 0.235163
0.574157 0.1 0.3375 0.232494
0.411108 0.1 0.525 0.204748
0.411108 0.1 -0.525 0.208165
0.67013 0.1 0.0375 0.258944
0.67013 0.1 -0.0375 0.259296
0.219992 0.1 -0.6375 0.191173
0.219993 0.1 0.6375 0.187639
0 0.1 -0.675 0.206676
0 0.1 0.675 0.203066
0.467897 0.1 -0.4875 0.214602
0.467897 0.1 0.4875 0.211259
0.67013 0.1 -0.1125 0.258372
0.67013 0.1 0.1125 0.257317
0.522865 0.1 0.45 0.219139
0.522865 0.1 -0.45 0.222409
0.150379 0.1 0.675 0.193796
0.150379 0.1 -0.675 0.197445
0.623803 0.1 0.3 0.241407
0.623803 0.1 -0.3 0.243949
0 0.1 -0.69299 0.205498
0 0.1 0.69299 0.201819
0.0363518 0.1 -0.69299 0.205498
0.0363518 0.1 0.69299 0.201819
0.67013 0.1 -0.1875 0.256187
0.67013 0.1 0.1875 0.254457
0.574156 0.1 0.4125 0.2272
0.574157 0.1 -0.4125 0.230383
0.714971 0.1 -2.8382e-17 0.267205
0.075776 0.1 -0.7125 0.204224
0.075776 0.1 0.7125 0.200469
0.714971 0.1 -0.075 0.266891
0.714971 0.1 0.075 0.266142
0.67013 0.1 0.2625 0.250417
0.67013 0.1 -0.2625 0.252802
0.411108 0.1 -0.6 0.202813
0.411108 0.1 0.6 0.199026
0.350249 0.1 0.6375 0.192923
0.350249 0.1 -0.6375 0.196749
0.623803 0.1 0.375 0.236167
0.623803 0.1 -0.375 0.239258
0.714971 0.1 -0.15 0.265206
0.714971 0.1 0.15 0.263725
0.467897 0.1 -0.5625 0.209136
0.467897 0.1 0.5625 0.205397
0 0.1 -0.73201 0.202852
0 0.1 0.73201 0.19903
0.0363518 0.1 0.73201 0.19903
0.0363518 0.1 -0.73201 0.202852
0.287374 0.1 -0.675 0.191348
0.287374 0.1 0.675 0.187514
0.522865 0.1 -0.525 0.216859
0.522865 0.1 0.525 0.213162
0.219993 0.1 -0.7125 0.186098
0.219992 0.1 0.7125 0.182257
0.714971 0.1 -0.225 0.26219
0.714971 0.1 0.225 0.260008
0 0.1 0.75 0.197707
0 0.1 -0.75 0.201591
0.67013 0.1 -0.3375 0.248288
0.67013 0.1 0.3375 0.245305
0.574156 0.1 -0.4875 0.224797
0.574157 0.1 0.4875 0.221156
0.756813 0.1 0.0375 0.274827
0.756814 0.1 -0.0375 0.275225
0.150379 0.1 0.746002 0.188781
0.150379 0.1 -0.75 0.192287
0.756813 0.1 -0.1125 0.274142
0.756813 0.1 0.1125 0.272955
0 0.1 0.76799 0.196384
0 0.1 -0.76799 0.200331
0.0363518 0.1 0.76799 0.196384
0.0363518 0.1 -0.76799 0.200331
0.623803 0.1 -0.45 0.233657
0.623803 0.1 0.45 0.230065
0.714971 0.1 -0.3 0.257915
0.714971 0.1 0.3 0.255077
0.756814 0.1 -0.1875 0.271604
0.756814 0.1 0.1875 0.269657
0.67013 0.1 -0.4125 0.242737
0.67013 0.1 0.4125 0.239217
0.411108 0.1 0.675 0.192877
0.411108 0.1 -0.675 0.196991
0.467897 0.1 0.6375 0.199042
0.467897 0.1 -0.6375 0.203132
0.075776 0.1 0.7875 0.194952
0.075776 0.1 -0.7875 0.198966
0.350249 0.1 -0.7125 0.191136
0.350249 0.1 0.7125 0.187013
0.522865 0.1 -0.6 0.210697
0.522865 0.1 0.6 0.206622
0.797314 0.1 -3.59473e-17 0.283509
0.287374 0.1 0.746002 0.181955
0.797314 0.1 -0.075 0.28314
0.797314 0.1 0.075 0.28229
0.756814 0.1 -0.2625 0.267662
0.756814 0.1 0.2625 0.265003
0.287374 0.1 -0.75 0.185839
0.574156 0.1 -0.5625 0.218517
0.574156 0.1 0.5625 0.214467
0 0.1 0.80701 0.193448
0 0.1 -0.80701 0.197523
0.714971 0.1 -0.375 0.252475
0.714971 0.1 0.375 0.249044
0.0363518 0.1 0.80701 0.193448
0.0363518 0.1 -0.80701 0.197523
0.797314 0.1 -0.15 0.28119
0.797314 0.1 0.15 0.279516
0.623803 0.1 -0.525 0.22726
0.623803 0.1 0.525 0.223221
0.219992 0.1 0.7875 0.1766
0.219992 0.1 -0.7875 0.180715
0.149792 0.1 0.80701 0.184067
0 0.1 0.825 0.192064
0 0.1 -0.825 0.196195
0.797314 0.1 -0.225 0.277703
0.797314 0.1 0.225 0.27525
0.756813 0.1 -0.3375 0.262425
0.756813 0.1 0.3375 0.259111
0.67013 0.1 0.4875 0.232269
0.67013 0.1 -0.4875 0.23628
0.835106 0.1 -0.0375 0.291966
0.835106 0.1 0.0375 0.291511
0.150379 0.1 -0.825 0.186834
0.835106 0.1 -0.1125 0.290722
0.835106 0.1 0.1125 0.289368
0 0.1 -0.84299 0.194868
0 0.1 0.84299 0.190681
0.0363518 0.1 -0.84299 0.194868
0.0363518 0.1 0.84299 0.190681
0.714971 0.1 -0.45 0.245995
0.714971 0.1 0.45 0.242029
0.411108 0.1 0.746002 0.186654
0.797314 0.1 -0.3 0.272771
0.797314 0.1 0.3 0.269591
0.467897 0.1 -0.7125 0.196695
0.467897 0.1 0.7125 0.192291
0.522865 0.1 0.675 0.199622
0.522865 0.1 -0.675 0.20403
0.411108 0.1 -0.75 0.190786
0.835106 0.1 -0.1875 0.287797
0.835107 0.1 0.1875 0.285594
0.286844 0.1 0.80701 0.177145
0.574156 0.1 0.6375 0.207245
0.574157 0.1 -0.6375 0.211654
0.350249 0.1 -0.7875 0.185193
0.350249 0.1 0.7875 0.180811
0.756813 0.1 -0.4125 0.255994
0.756814 0.1 0.4125 0.252099
0.623803 0.1 -0.6 0.22019
0.623803 0.1 0.6 0.215759
0.075776 0.1 0.8625 0.189183
0.075776 0.1 -0.8625 0.193432
0.871687 0.1 -3.2767e-18 0.300383
0.287374 0.1 -0.825 0.180043
0.871687 0.1 -0.075 0.299955
0.871687 0.1 0.075 0.298993
0.67013 0.1 -0.5625 0.229048
0.67013 0.1 0.5625 0.224608
0.835106 0.1 0.2625 0.280276
0.835106 0.1 -0.2625 0.283269
0.797314 0.1 -0.375 0.266509
0.797314 0.1 0.375 0.262678
0 0.1 -0.88201 0.191932
0 0.1 0.88201 0.18763
0.0363518 0.1 0.88201 0.18763
0.0363518 0.1 -0.88201 0.191932
0.871687 0.1 0.15 0.295823
0.871687 0.1 -0.15 0.297716
0.714971 0.1 0.525 0.234183
0.714971 0.1 -0.525 0.23862
0.219993 0.1 0.8625 0.170728
0.219992 0.1 -0.8625 0.175085
0 0.1 0.9 0.186202
0 0.1 -0.9 0.190553
0.756813 0.1 0.4875 0.244121
0.756814 0.1 -0.4875 0.248545
0.871687 0.1 0.225 0.290954
0.871687 0.1 -0.225 0.293719
0.835106 0.1 -0.3375 0.277266
0.835106 0.1 0.3375 0.273527
0.41063 0.1 0.80701 0.181281
0.90582 0.1 -0.0375 0.309051
0.905821 0.1 0.0375 0.308539
0.522865 0.1 0.746002 0.192554
0.150379 0.1 0.9 0.176742
0.90582 0.1 0.1125 0.306095
0.905821 0.1 -0.1125 0.307619
0.522865 0.1 -0.75 0.196963
0.574156 0.1 0.7125 0.199607
0.574156 0.1 -0.7125 0.204324
0.797314 0.1 -0.45 0.259067
0.797314 0.1 0.45 0.254665
0.467897 0.1 -0.7875 0.189906
0.467897 0.1 0.7875 0.185239
0.150379 0.1 -0.903998 0.181515
0 0.1 0.91799 0.184774
0 0.1 -0.91799 0.189174
0.0363518 0.1 0.91799 0.184774
0.0363518 0.1 -0.91799 0.189174
0.623803 0.1 0.675 0.207807
0.623803 0.1 -0.675 0.212573
0.411108 0.1 -0.825 0.184285
0.871687 0.1 0.3 0.284501
0.871687 0.1 -0.3 0.288071
0.67013 0.1 -0.6375 0.221176
0.67013 0.1 0.6375 0.216368
0.90582 0.1 -0.1875 0.304271
0.90582 0.1 0.1875 0.301787
0.350249 0.1 0.8625 0.17438
0.350249 0.1 -0.8625 0.178993
0.835106 0.1 -0.4125 0.269918
0.835106 0.1 0.4125 0.265554
0.714971 0.1 -0.6 0.230497
0.714971 0.1 0.6 0.22566
0.93886 0.1 -1.15648e-17 0.317293
0.075776 0.1 0.9375 0.183228
0.075776 0.1 -0.9375 0.187681
0.93886 0.1 0.075 0.315717
0.93886 0.1 -0.075 0.316822
0.756813 0.1 0.5625 0.235356
0.756814 0.1 -0.5625 0.240216
0.905821 0.1 -0.2625 0.299101
0.905821 0.1 0.2625 0.29573
0.287374 0.1 0.9 0.169439
0.287374 0.1 -0.903998 0.174663
0.871687 0.1 0.375 0.276633
0.871687 0.1 -0.375 0.280912
0.93886 0.1 -0.15 0.314308
0.93886 0.1 0.15 0.312138
0.797314 0.1 0.525 0.245721
0.797314 0.1 -0.525 0.250617
0 0.1 0.95701 0.181642
0 0.1 -0.95701 0.186141
0.0363518 0.1 0.95701 0.181642
0.0363518 0.1 -0.95701 0.186141
0.522433 0.1 0.80701 0.1865
0.219992 0.1 0.9375 0.164698
0.219992 0.1 -0.9375 0.16926
0.93886 0.1 0.225 0.306653
0.93886 0.1 -0.225 0.309817
0.90582 0.1 0.3375 0.288066
0.905821 0.1 -0.3375 0.292228
0.835106 0.1 -0.4875 0.261404
0.835107 0.1 0.4875 0.256498
0.969689 0.1 -0.0375 0.32589
0.969689 0.1 0.0375 0.325289
0.61613 0.1 0.75 0.199492
0.574156 0.1 -0.7875 0.196646
0.574156 0.1 0.7875 0.191665
0 0.1 0.975 0.180183
0 0.1 -0.975 0.184724
0.623803 0.1 -0.75 0.204541
0.969689 0.1 -0.1125 0.324322
0.969689 0.1 0.1125 0.322545
0.522865 0.1 -0.825 0.189598
0.67013 0.1 0.7125 0.207695
0.67013 0.1 -0.7125 0.212811
0.871687 0.1 -0.45 0.272419
0.871687 0.1 0.45 0.267535
0.467897 0.1 0.8625 0.17797
0.467897 0.1 -0.8625 0.182867
0.714971 0.1 -0.675 0.221788
0.714971 0.1 0.675 0.216614
0.93886 0.1 -0.3 0.303456
0.93886 0.1 0.3 0.299401
0.150379 0.1 0.975 0.17069
0.150379 0.1 -0.975 0.175287
0.969689 0.1 -0.1875 0.320621
0.969689 0.1 0.1875 0.317734
0.411108 0.1 0.9 0.172713
0.756813 0.1 0.6375 0.225968
0.756814 0.1 -0.6375 0.231197
0.990306 0.1 -2.19732e-17 0.330329
0 0.1 0.99299 0.178724
0 0.1 -0.99299 0.183307
0.411108 0.1 -0.903998 0.178269
0.990306 0.1 -0.075 0.329826
0.990306 0.1 0.075 0.328588
0.0363518 0.1 0.99299 0.178724
0.0363518 0.1 -0.99299 0.183307
0.90582 0.1 -0.4125 0.283846
0.905821 0.1 0.4125 0.279008
0.797314 0.1 -0.6 0.241344
0.797314 0.1 0.6 0.236041
0.350249 0.1 0.9375 0.167797
0.350249 0.1 -0.9375 0.17261
0.990306 0.1 0.15 0.324657
0.990306 0.1 -0.15 0.327081
0.969689 0.1 -0.2625 0.314889
0.969689 0.1 0.2625 0.310984
0.835106 0.1 -0.5625 0.251931
0.835106 0.1 0.5625 0.246553
0.93886 0.1 -0.375 0.295385
0.93886 0.1 0.375 0.290566
0.075776 0.1 1.0125 0.177145
0.075776 0.1 -1.0125 0.181774
0.990306 0.1 -0.225 0.322168
0.990306 0.1 0.225 0.318641
0.287374 0.1 0.975 0.163078
0.287374 0.1 -0.975 0.167853
0.871687 0.1 -0.525 0.262796
0.871687 0.1 0.525 0.257398
1.02149 0.1 -0.0369628 0.340341
1.02149 0.1 0.0369628 0.339677
0.969689 0.1 -0.3375 0.307236
0.969689 0.1 0.3375 0.302467
1.02149 0.1 -0.110888 0.338626
1.02149 0.1 0.110888 0.33667
0.90582 0.1 0.4875 0.268733
0.90582 0.1 -0.4875 0.274146
0.623803 0.1 0.819003 0.192623
0 0.1 1.03201 0.175541
0 0.1 -1.03201 0.180209
0.0363518 0.1 1.03201 0.175541
0.0363518 0.1 -1.03201 0.180209
0.67013 0.1 -0.7875 0.204093
0.67013 0.1 0.7875 0.198725
0.623803 0.1 -0.825 0.196217
0.990306 0.1 -0.3 0.315201
0.990306 0.1 0.3 0.310699
0.219992 0.1 -1.0125 0.163304
0.219993 0.1 1.0125 0.158563
0.574156 0.1 0.8625 0.183526
0.574157 0.1 -0.8625 0.188726
0.714971 0.1 -0.75 0.212651
0.714971 0.1 0.75 0.2072
1.02149 0.1 0.184814 0.331403
1.02149 0.1 -0.184814 0.334574
0.756814 0.1 -0.7125 0.221655
0.756814 0.1 0.7125 0.216124
0.522865 0.1 0.9 0.176891
0.93886 0.1 -0.45 0.285826
0.93886 0.1 0.45 0.280352
1.04168 0.1 0 0.346034
1.04168 0.1 -0.0729162 0.345541
1.04168 0.1 0.0729162 0.344165
0.522865 0.1 -0.903998 0.182839
0.797314 0.1 -0.675 0.231444
0.797314 0.1 0.675 0.225813
0.467897 0.1 0.9375 0.170572
0.467897 0.1 -0.9375 0.17566
0 0.1 1.05 0.174065
0 0.1 -1.05 0.178769
0.835106 0.1 -0.6375 0.241698
0.835106 0.1 0.6375 0.235968
1.04168 0.1 -0.145832 0.342688
1.04168 0.1 0.145832 0.339996
1.02149 0.1 -0.25874 0.328295
1.02149 0.1 0.25874 0.324011
0.969689 0.1 -0.4125 0.297879
0.969689 0.1 0.4125 0.29239
0.411108 0.1 0.975 0.165678
0.411108 0.1 -0.975 0.17071
0.871687 0.1 -0.6 0.252267
0.871687 0.1 0.6 0.246464
1.0579 0.1 -0.0360525 0.351097
1.0579 0.1 0.0360525 0.350398
0.990306 0.1 -0.375 0.306357
0.990306 0.1 0.375 0.301031
0.150379 0.1 1.05 0.16455
0.150379 0.1 -1.05 0.16931
1.0579 0.1 0.108157 0.347373
1.0579 0.1 -0.108157 0.34943
1.04168 0.1 -0.218749 0.337547
1.04168 0.1 0.218749 0.333632
0.90582 0.1 -0.5625 0.263373
0.90582 0.1 0.5625 0.257494
0 0.1 -1.06799 0.17733
0 0.1 1.06799 0.172589
0.0363518 0.1 -1.06799 0.17733
0.0363518 0.1 1.06799 0.172589
0.350249 0.1 1.0125 0.161126
0.350249 0.1 -1.0125 0.166101
1.0579 0.1 -0.180262 0.345435
1.0579 0.1 0.180262 0.342101
1.02149 0.1 -0.332665 0.319919
1.02149 0.1 0.332665 0.314688
0.93886 0.1 -0.525 0.275028
0.93886 0.1 0.525 0.269013
1.08012 0.1 5.49329e-18 0.357421
1.04168 0.1 -0.291665 0.33023
1.04168 0.1 0.291665 0.325234
1.08012 0.1 0.0709941 0.35551
1.08012 0.1 -0.0709941 0.356979
0.969689 0.1 -0.4875 0.287109
0.96969 0.1 0.4875 0.280969
1.0579 0.1 0.252367 0.334708
1.0579 0.1 -0.252367 0.33921
0.990306 0.1 -0.45 0.295892
0.990306 0.1 0.45 0.289872
0.287374 0.1 -1.05 0.16158
0.287374 0.1 1.05 0.156648
0.714971 0.1 0.821002 0.198308
1.08012 0.1 -0.141988 0.354183
1.08012 0.1 0.141988 0.351309
0.075776 0.1 1.0875 0.170992
0.075776 0.1 -1.0875 0.175772
0.714971 0.1 -0.825 0.203239
0.756813 0.1 -0.7875 0.211771
0.756814 0.1 0.7875 0.205996
0.67013 0.1 -0.8625 0.195154
0.67013 0.1 0.8625 0.189589
0.797314 0.1 -0.75 0.221107
0.797314 0.1 0.75 0.215217
0.623803 0.1 0.9 0.182254
0.835106 0.1 -0.7125 0.230926
0.835106 0.1 0.7125 0.224909
0.623803 0.1 -0.903998 0.188623
0.574156 0.1 0.9375 0.175296
0.574156 0.1 -0.9375 0.18068
1.02149 0.1 -0.406591 0.309709
1.02149 0.1 0.406591 0.303669
1.08012 0.1 -0.212982 0.349095
1.08012 0.1 0.212982 0.344917
1.10076 0.1 -0.0349809 0.364223
1.10076 0.1 0.0349809 0.363431
0.871687 0.1 -0.675 0.241063
0.871687 0.1 0.675 0.234954
1.04168 0.1 -0.364581 0.320923
1.04168 0.1 0.364581 0.315012
1.10076 0.1 -0.104943 0.362636
1.10076 0.1 0.104943 0.360304
0.522865 0.1 0.975 0.169054
0.522865 0.1 -0.975 0.174369
1.0579 0.1 -0.324472 0.330873
1.0579 0.1 0.324472 0.32538
0 0.1 -1.10701 0.174196
0 0.1 1.10701 0.169383
0.0363518 0.1 1.10701 0.169383
0.0363518 0.1 -1.10701 0.174196
0.90582 0.1 0.6375 0.245562
0.905821 0.1 -0.6375 0.251773
0.219992 0.1 1.0875 0.152375
0.219992 0.1 -1.0875 0.157262
0.93886 0.1 0.6 0.256836
0.93886 0.1 -0.6 0.263233
1.10076 0.1 -0.174905 0.358701
1.10076 0.1 0.174905 0.354921
0.467897 0.1 1.0125 0.163118
0.467897 0.1 -1.0125 0.168359
1.08012 0.1 -0.283976 0.341815
1.08012 0.1 0.283976 0.336484
1.11928 0.1 3.93204e-18 0.369098
0.990306 0.1 -0.525 0.284077
0.990306 0.1 0.525 0.277513
0.96969 0.1 -0.5625 0.275182
0.969689 0.1 0.5625 0.268575
1.11928 0.1 -0.0690357 0.368723
1.11928 0.1 0.0690357 0.367105
0 0.1 1.125 0.167902
0 0.1 -1.125 0.172747
0.411108 0.1 -1.05 0.163783
0.411108 0.1 1.05 0.158605
1.10076 0.1 0.244866 0.347396
1.10076 0.1 -0.244866 0.352505
1.11928 0.1 -0.138072 0.365972
1.11928 0.1 0.138072 0.362806
1.02149 0.1 0.480517 0.29125
1.02149 0.1 -0.480517 0.297898
1.0579 0.1 -0.396577 0.320658
1.0579 0.1 0.396577 0.31434
1.04168 0.1 -0.437497 0.309867
1.04168 0.1 0.437497 0.303226
0.150379 0.1 1.125 0.15837
0.150379 0.1 -1.125 0.163268
0.714971 0.1 0.88201 0.191653
1.08012 0.1 0.354971 0.326211
1.08012 0.1 -0.354971 0.332508
1.11928 0.1 -0.207107 0.360902
1.11928 0.1 0.207107 0.356298
0.350249 0.1 -1.0875 0.159541
0.350249 0.1 1.0875 0.154425
0 0.1 1.14299 0.166422
0 0.1 -1.14299 0.171298
0.0363518 0.1 1.14299 0.166422
0.0363518 0.1 -1.14299 0.171298
1.14316 0.1 -0.0339211 0.376914
1.14316 0.1 0.0339211 0.37607
0.797314 0.1 0.821002 0.204871
1.10076 0.1 -0.314829 0.344145
1.10076 0.1 0.314829 0.337909
0.797314 0.1 -0.825 0.210514
0.756814 0.1 -0.8625 0.201702
0.756814 0.1 0.8625 0.195741
1.14316 0.1 -0.101763 0.37536
1.14316 0.1 0.101763 0.372871
0.835106 0.1 -0.7875 0.219815
0.835106 0.1 0.7875 0.21359
0.871687 0.1 -0.75 0.229428
0.871687 0.1 0.75 0.223078
0.67013 0.1 0.9375 0.180404
0.67013 0.1 -0.9375 0.18613
0.90582 0.1 -0.7125 0.239602
0.905821 0.1 0.7125 0.233137
0.714971 0.1 -0.903998 0.194694
1.11928 0.1 0.276143 0.347722
1.11928 0.1 -0.276143 0.353602
1.14316 0.1 0.169605 0.367398
1.14316 0.1 -0.169605 0.371436
0.93886 0.1 -0.675 0.250713
0.93886 0.1 0.675 0.244048
1.15704 0.1 0 0.380555
1.0579 0.1 0.468682 0.301863
1.0579 0.1 -0.468682 0.308791
0.623803 0.1 0.975 0.173549
0.623803 0.1 -0.975 0.179174
0.990306 0.1 0.6 0.264265
0.990306 0.1 -0.6 0.271189
1.15704 0.1 -0.0671479 0.380254
1.15704 0.1 0.0671479 0.378475
1.04168 0.1 -0.510414 0.297323
1.04168 0.1 0.510414 0.290148
0.969689 0.1 -0.6375 0.262334
0.969689 0.1 0.6375 0.255461
1.08012 0.1 0.425965 0.314341
1.08012 0.1 -0.425965 0.321394
0.287374 0.1 -1.125 0.155261
0.287374 0.1 1.125 0.1502
1.02149 0.1 -0.554443 0.284769
1.02149 0.1 0.554443 0.277696
0.574156 0.1 1.0125 0.167061
0.574156 0.1 -1.0125 0.172594
1.15704 0.1 -0.134296 0.377562
1.15704 0.1 0.134296 0.374077
0.075776 0.1 1.1625 0.16482
0.075776 0.1 -1.1625 0.169729
1.10076 0.1 -0.384791 0.333835
1.10076 0.1 0.384791 0.326669
1.14316 0.1 -0.237448 0.365215
1.14316 0.1 0.237448 0.35976
1.11928 0.1 -0.345179 0.344221
1.11928 0.1 0.345179 0.337273
0.522865 0.1 1.05 0.161225
0.522865 0.1 -1.05 0.166676
1.15704 0.1 -0.201444 0.372527
1.15704 0.1 0.201444 0.367455
1.1744 0.1 -0.0331401 0.386179
1.1744 0.1 0.0331401 0.385245
1.1744 0.1 -0.0994202 0.384707
1.1744 0.1 0.0994202 0.381951
0 0.1 1.18201 0.163219
0 0.1 -1.18201 0.168156
0.0363518 0.1 1.18201 0.163219
0.0363518 0.1 -1.18201 0.168156
0.219992 0.1 1.1625 0.146172
0.219993 0.1 -1.1625 0.151181
1.14316 0.1 0.30529 0.350127
1.14316 0.1 -0.30529 0.356795
0.467897 0.1 1.0875 0.155682
0.467897 0.1 -1.0875 0.161052
1.1744 0.1 -0.1657 0.380855
1.1744 0.1 0.1657 0.37638
1.15704 0.1 -0.268592 0.36523
1.15704 0.1 0.268592 0.358747
1.0579 0.1 0.540787 0.288205
1.0579 0.1 -0.540787 0.295575
0.796996 0.1 0.88201 0.196196
1.08012 0.1 -0.496959 0.308744
1.08012 0.1 0.496959 0.301137
1.10076 0.1 0.454752 0.313945
1.10076 0.1 -0.454752 0.321784
1.11928 0.1 -0.414214 0.332965
1.11928 0.1 0.414214 0.325188
1.04168 0.1 -0.58333 0.283605
1.04168 0.1 0.58333 0.276076
1.1744 0.1 -0.231981 0.374688
1.1744 0.1 0.231981 0.368636
0.871687 0.1 0.821002 0.211555
0.411108 0.1 1.125 0.151555
0.411108 0.1 -1.125 0.15685
1.19808 0.1 1.73472e-17 0.393087
0.990306 0.1 0.675 0.250385
0.990306 0.1 -0.675 0.257552
1.02149 0.1 0.628368 0.263335
1.02149 0.1 -0.628368 0.270686
1.19808 0.1 -0.0650961 0.392876
1.19808 0.1 0.0650961 0.390914
0 0.1 1.2 0.161746
0 0.1 -1.2 0.166709
0.871687 0.1 -0.825 0.217576
0.905821 0.1 -0.7875 0.22715
0.90582 0.1 0.7875 0.22047
0.835106 0.1 -0.8625 0.208544
0.835106 0.1 0.8625 0.202186
0.93886 0.1 -0.75 0.237759
0.93886 0.1 0.75 0.230896
1.14316 0.1 -0.373132 0.346364
1.14316 0.1 0.373132 0.338703
0.969689 0.1 0.7125 0.24181
0.969689 0.1 -0.7125 0.248904
1.15704 0.1 -0.33574 0.35581
1.15704 0.1 0.33574 0.348136
0.756813 0.1 0.9375 0.185499
0.756814 0.1 -0.9375 0.191599
1.19808 0.1 0.130192 0.386421
1.19808 0.1 -0.130192 0.390267
0.797314 0.1 -0.903998 0.200947
0.714971 0.1 0.975 0.178177
0.714971 0.1 -0.975 0.184145
0.150379 0.1 1.2 0.152195
0.150379 0.1 -1.2 0.157209
1.20938 0.1 -0.0322656 0.396712
1.20938 0.1 0.0322656 0.395696
1.1744 0.1 -0.298261 0.366295
1.1744 0.1 0.298261 0.358884
1.20938 0.1 -0.0967968 0.395319
1.20938 0.1 0.0967968 0.392318
1.19808 0.1 -0.195288 0.385304
1.19808 0.1 0.195288 0.379701
0.350249 0.1 1.1625 0.147748
0.350249 0.1 -1.1625 0.152967
0.67013 0.1 1.0125 0.171269
0.67013 0.1 -1.0125 0.177111
0 0.1 1.21799 0.160273
0 0.1 -1.21799 0.165262
0.0363518 0.1 -1.21799 0.165262
0.0363518 0.1 1.21799 0.160273
1.11928 0.1 -0.48325 0.320101
1.11928 0.1 0.48325 0.311724
1.10076 0.1 -0.524714 0.308328
1.10076 0.1 0.524714 0.299988
1.20938 0.1 0.161328 0.386663
1.20938 0.1 -0.161328 0.391539
1.08012 0.1 0.567953 0.286892
1.08012 0.1 -0.567953 0.294862
0.623803 0.1 1.05 0.164912
0.623803 0.1 -1.05 0.170654
1.0579 0.1 -0.612892 0.281326
1.0579 0.1 0.612892 0.273705
1.15704 0.1 -0.402888 0.344457
1.15704 0.1 0.402888 0.335857
1.14316 0.1 0.440974 0.325751
1.14316 0.1 -0.440974 0.334127
1.19808 0.1 -0.260384 0.378059
1.19808 0.1 0.260384 0.370885
1.2267 0.1 3.57064e-18 0.401271
1.2267 0.1 -0.0636649 0.401122
1.2267 0.1 0.0636649 0.399032
1.1744 0.1 -0.364541 0.355852
1.1744 0.1 0.364541 0.347318
0.574156 0.1 1.0875 0.158899
0.574156 0.1 -1.0875 0.164548
1.20938 0.1 0.225859 0.37883
1.20938 0.1 -0.225859 0.385433
1.04168 0.1 -0.656246 0.269067
1.04168 0.1 0.656246 0.261325
1.2267 0.1 -0.12733 0.398574
1.2267 0.1 0.12733 0.394473
0.287374 0.1 1.2 0.143774
0.287374 0.1 -1.2 0.148939
1.02149 0.1 -0.702294 0.256026
1.02149 0.1 0.702294 0.248476
0.075776 0.1 -1.2375 0.163696
0.075776 0.1 1.2375 0.158679
0.871399 0.1 0.88201 0.201918
0.522865 0.1 1.125 0.153473
0.522865 0.1 -1.125 0.159029
1.2267 0.1 -0.190994 0.393664
1.2267 0.1 0.190994 0.387685
1.19808 0.1 -0.32548 0.368656
1.19808 0.1 0.32548 0.360147
0.990306 0.1 -0.75 0.243487
0.990306 0.1 0.75 0.23616
1.24274 0.1 -0.0314313 0.406542
1.24274 0.1 0.0314313 0.405446
1.20938 0.1 -0.29039 0.37708
1.20938 0.1 0.29039 0.36898
1.24274 0.1 -0.0942942 0.405228
1.24274 0.1 0.0942942 0.401985
0.93886 0.1 0.821002 0.218194
1.11928 0.1 -0.552285 0.305932
1.11928 0.1 0.552285 0.297168
1.15704 0.1 -0.470036 0.331421
1.15704 0.1 0.470036 0.322165
0.969689 0.1 -0.7875 0.235171
0.96969 0.1 0.7875 0.227973
0.93886 0.1 -0.825 0.224626
0.90582 0.1 0.8625 0.207792
0.905821 0.1 -0.8625 0.214614
1.1744 0.1 -0.430821 0.343555
1.1744 0.1 0.430821 0.334203
1.10076 0.1 -0.594676 0.293739
1.10076 0.1 0.594676 0.28513
1.14316 0.1 -0.508816 0.320394
1.14316 0.1 0.508816 0.311519
1.24274 0.1 -0.157157 0.401522
1.24274 0.1 0.157157 0.396246
1.2267 0.1 -0.254659 0.38646
1.2267 0.1 0.254659 0.378796
0.467897 0.1 1.1625 0.148326
0.467897 0.1 -1.1625 0.153792
1.08012 0.1 0.638947 0.271919
1.08012 0.1 -0.638947 0.280063
1.25511 0.1 -5.78241e-19 0.40936
0.835106 0.1 -0.9375 0.19732
0.835106 0.1 0.9375 0.190853
0.871687 0.1 -0.903998 0.206918
1.25511 0.1 0.0622446 0.407077
1.25511 0.1 -0.0622446 0.409257
0.219992 0.1 1.2375 0.139988
0.219992 0.1 -1.2375 0.145102
0 0.1 -1.25701 0.162137
0 0.1 1.25701 0.157097
0.0363518 0.1 -1.25701 0.162137
0.0363518 0.1 1.25701 0.157097
0.797314 0.1 0.975 0.182908
0.797314 0.1 -0.975 0.189227
1.19808 0.1 -0.390576 0.357273
1.19808 0.1 0.390576 0.34771
1.0579 0.1 -0.684997 0.266387
1.0579 0.1 0.684997 0.258643
1.20938 0.1 -0.354921 0.366644
1.20938 0.1 0.354921 0.357295
1.25511 0.1 0.124489 0.40247
1.25511 0.1 -0.124489 0.40675
1.24274 0.1 -0.220019 0.395478
1.24274 0.1 0.220019 0.388325
0.756813 0.1 1.0125 0.175382
0.756814 0.1 -1.0125 0.181574
1.2267 0.1 -0.318324 0.377078
1.2267 0.1 0.318324 0.367974
0.411108 0.1 1.2 0.144578
0.411108 0.1 -1.2 0.149965
1.25511 0.1 -0.186734 0.401876
1.25511 0.1 0.186734 0.395633
0.714971 0.1 1.05 0.168638
0.714971 0.1 -1.05 0.1747
1.04168 0.1 -0.729162 0.254069
1.04168 0.1 0.729162 0.246198
1.24274 0.1 0.282882 0.37838
1.24274 0.1 -0.282882 0.38717
0 0.1 1.275 0.155642
0 0.1 -1.275 0.160703
1.1744 0.1 0.497102 0.319785
1.1744 0.1 -0.497102 0.329685
1.15704 0.1 -0.537184 0.317006
1.15704 0.1 0.537184 0.307331
1.2756 0.1 -0.03061 0.416116
1.2756 0.1 0.03061 0.41494
0.67013 0.1 1.0875 0.16228
0.67013 0.1 -1.0875 0.168214
1.2756 0.1 -0.09183 0.414889
1.2756 0.1 0.09183 0.4114
1.25511 0.1 -0.248978 0.394696
1.25511 0.1 0.248978 0.386688
1.20938 0.1 0.419453 0.344034
1.20938 0.1 -0.419453 0.35431
1.11928 0.1 -0.621322 0.290771
1.11928 0.1 0.621322 0.281839
1.14316 0.1 -0.576659 0.305459
1.14316 0.1 0.576659 0.29632
1.19808 0.1 -0.455673 0.344134
1.19808 0.1 0.455673 0.333833
1.02149 0.1 0.776219 0.233439
1.02149 0.1 -0.776219 0.241091
0.150379 0.1 1.275 0.146065
0.150379 0.1 -1.275 0.151173
1.2756 0.1 -0.15305 0.41126
1.2756 0.1 0.15305 0.405585
1.2267 0.1 -0.381989 0.36569
1.2267 0.1 0.381989 0.355436
1.10076 0.1 -0.664638 0.278353
1.10076 0.1 0.664638 0.269661
0.350249 0.1 1.2375 0.141128
0.350249 0.1 -1.2375 0.146434
0.623803 0.1 1.125 0.156414
0.623803 0.1 -1.125 0.162243
0.9386 0.1 0.88201 0.207619
0.990306 0.1 0.825 0.222313
0.990306 0.1 -0.825 0.229273
1.24274 0.1 -0.345745 0.376751
1.24274 0.1 0.345745 0.366584
1.2906 0.1 0 0.419686
1.07933 0.1 0.709941 0.256502
1.2906 0.1 -0.0604698 0.419709
1.2906 0.1 0.0604698 0.417277
1.08012 0.1 -0.709941 0.264715
0 0.1 1.29299 0.154186
0 0.1 -1.29299 0.159268
1.25511 0.1 0.311223 0.375799
1.25511 0.1 -0.311223 0.385322
1.2756 0.1 -0.214269 0.405286
1.2756 0.1 0.214269 0.397585
0.0363518 0.1 1.29299 0.154186
0.0363518 0.1 -1.29299 0.159268
1.2906 0.1 -0.12094 0.417326
1.2906 0.1 0.12094 0.412549
0.574156 0.1 1.1625 0.150874
0.574157 0.1 -1.1625 0.156601
0.969689 0.1 0.8625 0.214168
0.969689 0.1 -0.8625 0.22139
1.0579 0.1 0.757102 0.243321
1.0579 0.1 -0.757102 0.251135
1.1744 0.1 -0.563382 0.314567
1.1744 0.1 0.563382 0.304347
1.20938 0.1 0.483984 0.329454
1.20938 0.1 -0.483984 0.34033
1.2906 0.1 -0.181409 0.412563
1.2906 0.1 0.181409 0.40559
0.93886 0.1 -0.903998 0.212874
0.90582 0.1 0.9375 0.195292
0.90582 0.1 -0.9375 0.202193
1.2756 0.1 0.275489 0.387553
1.2756 0.1 -0.275489 0.397031
1.2267 0.1 -0.445653 0.352507
1.2267 0.1 0.445653 0.341441
1.15704 0.1 -0.604332 0.301529
1.15704 0.1 0.604332 0.291685
1.19808 0.1 -0.520769 0.329545
1.19808 0.1 0.520769 0.318771
1.30646 0.1 0.0298385 0.42354
1.30646 0.1 -0.0298385 0.424799
0.287374 0.1 -1.275 0.142653
0.287374 0.1 1.275 0.137408
0.871687 0.1 0.975 0.187272
0.871687 0.1 -0.975 0.193978
1.24274 0.1 0.408607 0.353188
1.24274 0.1 -0.408607 0.364402
0.522865 0.1 1.2 0.145858
0.522865 0.1 -1.2 0.151493