# UMean  POINT_DATA 63140
# x  y  z  UMean_x  UMean_y  UMean_z
0 0.1 0 0.990268 0 0.139173
0 0.1 -0.0179898 0.990268 0 0.139173
0 0.1 0.0179898 0.990268 0 0.139173
0.0363518 0.1 0.0179898 0.993215 0.00744542 0.139436
0.0363518 0.1 -0.0179898 0.993189 0.00743829 0.139032
0 0.1 -0.0570102 0.990268 0 0.139173
0 0.1 0.0570102 0.990268 0 0.139173
0.0363518 0.1 0.0570102 0.993215 0.00744542 0.139436
0.0363518 0.1 -0.0570102 0.993189 0.00743829 0.139032
0 0.1 -0.075 0.990268 0 0.139173
0 0.1 0.075 0.990268 0 0.139173
0.075776 0.1 -0.0375 0.996401 0.0156325 0.138877
0.075776 0.1 0.0375 0.996457 0.015647 0.13972
0 0.1 -0.0929898 0.990268 0 0.139173
0 0.1 0.0929898 0.990268 0 0.139173
0.0363518 0.1 -0.0929898 0.993123 0.00740608 0.138616
0.0363518 0.1 0.0929898 0.993188 0.00742377 0.139847
0 0.1 -0.13201 0.990268 0 0.139173
0 0.1 0.13201 0.990268 0 0.139173
0.075776 0.1 -0.1125 0.996263 0.0155672 0.13801
0.075776 0.1 0.1125 0.996399 0.0156027 0.140576
0.0363518 0.1 -0.13201 0.993123 0.00740608 0.138616
0.0363518 0.1 0.13201 0.993188 0.00742377 0.139847
0 0.1 -0.15 0.990268 0 0.139173
0 0.1 0.15 0.990268 0 0.139173
0.150379 0.1 -2.22623e-17 0.998546 0.0151143 0.139255
0 0.1 -0.16799 0.990268 0 0.139173
0 0.1 0.16799 0.990268 0 0.139173
0.150379 0.1 -0.075 0.998612 0.0150775 0.137786
0.150379 0.1 0.075 0.998579 0.0151102 0.140717
0.0363518 0.1 -0.16799 0.993063 0.00737015 0.138216
0.0363518 0.1 0.16799 0.993134 0.00738695 0.14024
0.075776 0.1 -0.1875 0.996141 0.0154946 0.137176
0.075776 0.1 0.1875 0.996289 0.0155282 0.141396
0 0.1 -0.20701 0.990268 0 0.139173
0 0.1 0.20701 0.990268 0 0.139173
0.0363518 0.1 -0.20701 0.993063 0.00737015 0.138216
0.0363518 0.1 0.20701 0.993134 0.00738695 0.14024
0.150379 0.1 -0.15 0.998787 0.0150227 0.136312
0.150379 0.1 0.15 0.998718 0.0150682 0.142171
0.219993 0.1 -0.0375 1.00061 0.0146046 0.138184
0.219993 0.1 0.0375 1.00053 0.0146292 0.140243
0 0.1 -0.225 0.990268 0 0.139173
0 0.1 0.225 0.990268 0 0.139173
0 0.1 -0.24299 0.990268 0 0.139173
0 0.1 0.24299 0.990268 0 0.139173
0.0363518 0.1 0.24299 0.993078 0.00735119 0.140617
0.0363518 0.1 -0.24299 0.993019 0.00733897 0.137836
0.219993 0.1 -0.1125 1.00098 0.0145615 0.136133
0.219993 0.1 0.1125 1.00074 0.014617 0.142277
0.150379 0.1 -0.225 0.999011 0.0149676 0.13487
0.150379 0.1 0.225 0.998945 0.0150087 0.143606
0.075776 0.1 -0.2625 0.996051 0.015431 0.136384
0.075776 0.1 0.2625 0.996174 0.0154558 0.142183
0 0.1 -0.28201 0.990268 0 0.139173
0 0.1 0.28201 0.990268 0 0.139173
0.0363518 0.1 -0.28201 0.993019 0.00733897 0.137836
0.0363518 0.1 0.28201 0.993078 0.00735119 0.140617
0.287374 0.1 -2.89121e-19 0.997526 0.0141513 0.139065
0.219992 0.1 0.1875 1.00124 0.0145787 0.144328
0.219992 0.1 -0.1875 1.00154 0.0145222 0.134045
0.287374 0.1 -0.075 0.997729 0.0141301 0.136394
0.287374 0.1 0.075 0.997586 0.0141593 0.141723
0 0.1 -0.3 0.990268 0 0.139173
0 0.1 0.3 0.990268 0 0.139173
0 0.1 0.31799 0.990268 0 0.139173
0 0.1 -0.31799 0.990268 0 0.139173
0.0363518 0.1 -0.31799 0.992992 0.00730675 0.137488
0.0363518 0.1 0.31799 0.993041 0.00731853 0.140964
0.287374 0.1 0.15 0.997916 0.014147 0.144371
0.287374 0.1 -0.15 0.998176 0.0140982 0.133712
0.150379 0.1 -0.3 0.999219 0.0149097 0.133512
0.150379 0.1 0.3 0.999188 0.0149436 0.144982
0.219993 0.1 0.2625 1.00184 0.0145247 0.146353
0.219993 0.1 -0.2625 1.00205 0.0144763 0.132049
0.075776 0.1 -0.3375 0.995997 0.0153649 0.135658
0.075776 0.1 0.3375 0.996098 0.0153889 0.142906
0.350249 0.1 -0.0375 0.99465 0.0137025 0.137294
0.350249 0.1 0.0375 0.994587 0.0137113 0.14055
0 0.1 -0.35701 0.990268 0 0.139173
0 0.1 0.35701 0.990268 0 0.139173
0.0363518 0.1 -0.35701 0.992992 0.00730675 0.137488
0.0363518 0.1 0.35701 0.993041 0.00731853 0.140964
0.287374 0.1 -0.225 0.998758 0.0140482 0.131071
0.287374 0.1 0.225 0.998474 0.0141068 0.147002
0.350249 0.1 -0.1125 0.994957 0.0136932 0.134029
0.350249 0.1 0.1125 0.994761 0.0137219 0.143781
0 0.1 -0.375 0.990268 0 0.139173
0 0.1 0.375 0.990268 0 0.139173
0 0.1 -0.39299 0.990268 0 0.139173
0 0.1 0.39299 0.990268 0 0.139173
0.0363518 0.1 -0.39299 0.99298 0.00727642 0.137169
0.0363518 0.1 0.39299 0.993016 0.00728743 0.141274
0.350249 0.1 -0.1875 0.995511 0.0136568 0.130758
0.350249 0.1 0.1875 0.995204 0.0137117 0.147005
0.219992 0.1 -0.3375 1.00249 0.0144197 0.130183
0.219992 0.1 0.3375 1.00237 0.0144572 0.148264
0.150379 0.1 0.375 0.999418 0.0148744 0.146261
0.150379 0.1 -0.375 0.999426 0.0148474 0.132254
0.411108 0.1 4.33681e-19 0.989377 0.0139795 0.138657
0.287374 0.1 -0.3 0.999358 0.0139749 0.128561
0.287374 0.1 0.3 0.999129 0.0140356 0.149549
0.411108 0.1 -0.075 0.989594 0.0139676 0.134716
0.411108 0.1 0.075 0.989444 0.0139878 0.142585
0.075776 0.1 -0.4125 0.995974 0.0153032 0.134993
0.075776 0.1 0.4125 0.996049 0.0153254 0.143551
0 0.1 0.43201 0.990268 0 0.139173
0 0.1 -0.43201 0.990268 0 0.139173
0.0363518 0.1 0.43201 0.993016 0.00728743 0.141274
0.0363518 0.1 -0.43201 0.99298 0.00727642 0.137169
0.411108 0.1 -0.15 0.990099 0.0139388 0.130794
0.411108 0.1 0.15 0.989806 0.0139849 0.146482
0.350249 0.1 -0.2625 0.996204 0.0135791 0.127601
0.350249 0.1 0.2625 0.995889 0.0136533 0.150181
0 0.1 -0.45 0.990268 0 0.139173
0 0.1 0.45 0.990268 0 0.139173
0.219992 0.1 0.4125 1.00286 0.0143788 0.15005
0.219992 0.1 -0.4125 1.00294 0.0143549 0.128459
0 0.1 -0.46799 0.990268 0 0.139173
0 0.1 0.46799 0.990268 0 0.139173
0.411108 0.1 -0.225 0.990853 0.013874 0.126961
0.411108 0.1 0.225 0.99047 0.0139462 0.150319
0.467897 0.1 -0.0375 0.984395 0.0142348 0.136102
0.467897 0.1 0.0375 0.984312 0.0142437 0.140704
0.0363518 0.1 0.46799 0.993011 0.00726125 0.141556
0.0363518 0.1 -0.46799 0.992993 0.00724853 0.136868
0.287374 0.1 -0.375 0.999963 0.0138801 0.126228
0.287374 0.1 0.375 0.999799 0.013938 0.151941
0.150379 0.1 0.45 0.999645 0.0148062 0.147422
0.150379 0.1 -0.45 0.999633 0.0147819 0.131106
0.467897 0.1 0.1125 0.984552 0.0142489 0.145272
0.467897 0.1 -0.1125 0.984807 0.0142145 0.131515
0.350249 0.1 -0.3375 0.996947 0.0134682 0.124632
0.350249 0.1 0.3375 0.996687 0.0135496 0.153206
0.075776 0.1 -0.4875 0.996 0.0152464 0.134366
0.075776 0.1 0.4875 0.996038 0.0152724 0.14414
0.467897 0.1 0.1875 0.985139 0.0142318 0.149779
0.467897 0.1 -0.1875 0.98555 0.014166 0.127005
0 0.1 -0.50701 0.990268 0 0.139173
0 0.1 0.50701 0.990268 0 0.139173
0.0363518 0.1 -0.50701 0.992993 0.00724853 0.136868
0.0363518 0.1 0.50701 0.993011 0.00726125 0.141556
0.411108 0.1 0.3 0.991378 0.0138583 0.154022
0.411108 0.1 -0.3 0.991771 0.0137654 0.123314
0.522865 0.1 1.41031e-17 0.977676 0.014904 0.138042
0 0.1 -0.525 0.990268 0 0.139173
0 0.1 0.525 0.990268 0 0.139173
0.522865 0.1 -0.075 0.977977 0.0148799 0.132731
0.522865 0.1 0.075 0.977769 0.0149095 0.143351
0.287374 0.1 0.45 1.00047 0.0138199 0.154123
0.287374 0.1 -0.45 1.00056 0.0137649 0.124109
0.219992 0.1 0.4875 1.00331 0.0143019 0.151621
0.219992 0.1 -0.4875 1.0033 0.0142772 0.126931
0.467897 0.1 -0.2625 0.986567 0.01407 0.122661
0.467897 0.1 0.2625 0.986071 0.0141632 0.154169
0.350249 0.1 -0.4125 0.997726 0.0133244 0.121905
0.350249 0.1 0.4125 0.997537 0.0134111 0.156002
0 0.1 -0.54299 0.990268 0 0.139173
0 0.1 0.54299 0.990268 0 0.139173
0.522865 0.1 0.15 0.978263 0.0148917 0.148598
0.522865 0.1 -0.15 0.978674 0.0148264 0.127491
0.0363518 0.1 0.54299 0.993024 0.00723302 0.14182
0.0363518 0.1 -0.54299 0.993014 0.00721994 0.136593
0.150379 0.1 -0.525 0.999831 0.0147108 0.130077
0.150379 0.1 0.525 0.999855 0.0147369 0.148442
0.411108 0.1 -0.375 0.992788 0.0136151 0.119926
0.411108 0.1 0.375 0.99244 0.013724 0.1575
0.075776 0.1 -0.5625 0.996046 0.0151878 0.133793
0.075776 0.1 0.5625 0.996067 0.0152147 0.144689
0.522865 0.1 -0.225 0.979736 0.0147282 0.122415
0.522865 0.1 0.225 0.979167 0.0148315 0.153726
0.574156 0.1 0.0375 0.971198 0.0155484 0.140708
0.574157 0.1 -0.0375 0.971318 0.0155318 0.134683
0.467897 0.1 -0.3375 0.987768 0.0139214 0.118589
0.467897 0.1 0.3375 0.987274 0.014043 0.158342
0 0.1 -0.58201 0.990268 0 0.139173
0 0.1 0.58201 0.990268 0 0.139173
0.0363518 0.1 -0.58201 0.993014 0.00721994 0.136593
0.0363518 0.1 0.58201 0.993024 0.00723302 0.14182
0.574157 0.1 -0.1125 0.971903 0.0154819 0.128706
0.574157 0.1 0.1125 0.971533 0.0155396 0.146693
0.287374 0.1 -0.525 1.00112 0.0136344 0.122226
0.287374 0.1 0.525 1.00109 0.013687 0.156052
0 0.1 -0.6 0.990268 0 0.139173
0 0.1 0.6 0.990268 0 0.139173
0.350249 0.1 0.4875 0.998392 0.013236 0.158536
0.350249 0.1 -0.4875 0.998495 0.0131539 0.119452
0.522865 0.1 -0.3 0.981096 0.0145745 0.117601
0.522865 0.1 0.3 0.980448 0.0147143 0.158646
0.219992 0.1 -0.5625 1.00364 0.0141872 0.125581
0.219992 0.1 0.5625 1.00366 0.0142139 0.152954
0.574156 0.1 -0.1875 0.972941 0.015388 0.122874
0.574156 0.1 0.1875 0.97234 0.0154903 0.152566
0.411108 0.1 0.45 0.993586 0.0135453 0.16069
0.411108 0.1 -0.45 0.993863 0.0134291 0.116847
0 0.1 -0.61799 0.990268 0 0.139173
0 0.1 0.61799 0.990268 0 0.139173
0.150379 0.1 -0.6 1.00004 0.014636 0.129164
0.150379 0.1 0.6 1.00006 0.0146598 0.149332
0.0363518 0.1 -0.61799 0.993036 0.00719355 0.136349
0.0363518 0.1 0.61799 0.993045 0.00720294 0.142055
0.467897 0.1 -0.4125 0.989093 0.0137257 0.114851
0.467897 0.1 0.4125 0.988654 0.0138695 0.162213
0.623803 0.1 2.34188e-17 0.963503 0.016531 0.137256
0.623803 0.1 0.075 0.963626 0.0165339 0.144024
0.623803 0.1 -0.075 0.963929 0.0164844 0.1305
0.574156 0.1 0.2625 0.97362 0.0153856 0.158253
0.574156 0.1 -0.2625 0.97438 0.0152357 0.117304
0.623803 0.1 0.15 0.964299 0.0164904 0.150703
0.623803 0.1 -0.15 0.964899 0.0163866 0.123868
0.075776 0.1 0.6375 0.996109 0.0151531 0.145178
0.075776 0.1 -0.6375 0.996091 0.0151338 0.133285
0.522865 0.1 -0.375 0.982675 0.0143644 0.113142
0.522865 0.1 0.375 0.982021 0.0145374 0.163264
0 0.1 0.65701 0.990268 0 0.139173
0 0.1 -0.65701 0.990268 0 0.139173
0.0363518 0.1 0.65701 0.993045 0.00720294 0.142055
0.0363518 0.1 -0.65701 0.993036 0.00719355 0.136349
0.350249 0.1 0.5625 0.999213 0.0130487 0.160771
0.350249 0.1 -0.5625 0.999271 0.012974 0.117288
0.623803 0.1 0.225 0.965528 0.0163883 0.157202
0.623803 0.1 -0.225 0.966376 0.0162261 0.117478
0.287374 0.1 -0.6 1.0017 0.0134944 0.120573
0.287374 0.1 0.6 1.00169 0.0135441 0.157726
0.574157 0.1 -0.3375 0.976141 0.0150205 0.112083
0.574157 0.1 0.3375 0.975309 0.0152123 0.163637
0.411108 0.1 0.525 0.994759 0.0133334 0.16355
0.411108 0.1 -0.525 0.994974 0.0132192 0.114107
0.67013 0.1 0.0375 0.955937 0.0174972 0.140594
0.67013 0.1 -0.0375 0.956115 0.0174669 0.133069
0.219992 0.1 -0.6375 1.00401 0.014092 0.124393
0.219993 0.1 0.6375 1.00403 0.0141144 0.154108
0 0.1 -0.675 0.990268 0 0.139173
0 0.1 0.675 0.990268 0 0.139173
0.467897 0.1 -0.4875 0.990496 0.0134941 0.111494
0.467897 0.1 0.4875 0.990129 0.0136434 0.165729
0.67013 0.1 -0.1125 0.956931 0.0173784 0.125627
0.67013 0.1 0.1125 0.956392 0.0174708 0.148075
0.522865 0.1 0.45 0.983795 0.014302 0.167501
0.522865 0.1 -0.45 0.98441 0.0141059 0.109103
0.150379 0.1 0.675 1.00027 0.0145778 0.150102
0.150379 0.1 -0.675 1.00025 0.0145619 0.128369
0.623803 0.1 0.3 0.967277 0.0162153 0.163417
0.623803 0.1 -0.3 0.968291 0.0159946 0.111451
0 0.1 -0.69299 0.990268 0 0.139173
0 0.1 0.69299 0.990268 0 0.139173
0.0363518 0.1 -0.69299 0.993053 0.007171 0.13614
0.0363518 0.1 0.69299 0.993064 0.00717559 0.142256
0.67013 0.1 -0.1875 0.958362 0.0172215 0.118401
0.67013 0.1 0.1875 0.957481 0.0173824 0.1554
0.574156 0.1 0.4125 0.977309 0.0149743 0.168635
0.574157 0.1 -0.4125 0.978145 0.0147425 0.107319
0.714971 0.1 -2.8382e-17 0.94745 0.0187721 0.136325
0.075776 0.1 -0.7125 0.996128 0.0150878 0.132849
0.075776 0.1 0.7125 0.99615 0.0150972 0.145599
0.714971 0.1 -0.075 0.948036 0.0186944 0.128048
0.714971 0.1 0.075 0.947604 0.0187749 0.144631
0.67013 0.1 0.2625 0.959206 0.0172181 0.162461
0.67013 0.1 -0.2625 0.960346 0.0169852 0.11152
0.411108 0.1 -0.6 0.996122 0.0129928 0.111721
0.411108 0.1 0.6 0.995939 0.0131051 0.166051
0.350249 0.1 0.6375 1.00003 0.0128561 0.162706
0.350249 0.1 -0.6375 1.00008 0.0127833 0.115412
0.623803 0.1 0.375 0.969462 0.0159672 0.169233
0.623803 0.1 -0.375 0.970562 0.0156931 0.105892
0.714971 0.1 -0.15 0.949349 0.0185375 0.119948
0.714971 0.1 0.15 0.948493 0.0187011 0.152826
0.467897 0.1 -0.5625 0.991961 0.013239 0.108545
0.467897 0.1 0.5625 0.991643 0.0133869 0.168842
0 0.1 -0.73201 0.990268 0 0.139173
0 0.1 0.73201 0.990268 0 0.139173
0.0363518 0.1 0.73201 0.993064 0.00717559 0.142256
0.0363518 0.1 -0.73201 0.993053 0.007171 0.13614
0.287374 0.1 -0.675 1.00231 0.0133471 0.11915
0.287374 0.1 0.675 1.00229 0.0133922 0.159162
0.522865 0.1 -0.525 0.986257 0.0138121 0.105527
0.522865 0.1 0.525 0.985688 0.0140182 0.171297
0.219993 0.1 -0.7125 1.00441 0.0139931 0.123374
0.219992 0.1 0.7125 1.00443 0.0140057 0.155096
0.714971 0.1 -0.225 0.951343 0.0182894 0.112175
0.714971 0.1 0.225 0.950113 0.0185436 0.160777
0 0.1 0.75 0.990268 0 0.139173
0 0.1 -0.75 0.990268 0 0.139173
0.67013 0.1 -0.3375 0.962801 0.0166664 0.105127
0.67013 0.1 0.3375 0.96149 0.016971 0.169141
0.574156 0.1 -0.4875 0.980325 0.0144173 0.103062
0.574157 0.1 0.4875 0.979524 0.0146729 0.173157
0.756813 0.1 0.0375 0.939032 0.0200388 0.140388
0.756814 0.1 -0.0375 0.939283 0.0199892 0.131282
0.150379 0.1 0.746002 1.00041 0.0145102 0.150633
0.150379 0.1 -0.75 1.00048 0.0144892 0.127699
0.756813 0.1 -0.1125 0.940375 0.019848 0.122299
0.756813 0.1 0.1125 0.939619 0.0199965 0.149448
0 0.1 0.76799 0.990268 0 0.139173
0 0.1 -0.76799 0.990268 0 0.139173
0.0363518 0.1 0.76799 0.993079 0.00715228 0.142422
0.0363518 0.1 -0.76799 0.993066 0.0071515 0.135968
0.623803 0.1 -0.45 0.973102 0.0153315 0.100885
0.623803 0.1 0.45 0.971982 0.0156477 0.174552
0.714971 0.1 -0.3 0.953934 0.0179496 0.104883
0.714971 0.1 0.3 0.952425 0.0182936 0.168361
0.756814 0.1 -0.1875 0.942277 0.0196098 0.1136
0.756814 0.1 0.1875 0.941037 0.0198595 0.158308
0.67013 0.1 -0.4125 0.965635 0.0162768 0.0993121
0.67013 0.1 0.4125 0.964235 0.0166401 0.175297
0.411108 0.1 0.675 0.997132 0.0128651 0.168188
0.411108 0.1 -0.675 0.997305 0.0127537 0.109694
0.467897 0.1 0.6375 0.993179 0.0131134 0.171531
0.467897 0.1 -0.6375 0.993478 0.0129628 0.106018
0.075776 0.1 0.7875 0.996182 0.0150497 0.145945
0.075776 0.1 -0.7875 0.996155 0.0150481 0.13249
0.350249 0.1 -0.7125 1.00091 0.0125835 0.113831
0.350249 0.1 0.7125 1.00086 0.0126537 0.164343
0.522865 0.1 -0.6 0.988188 0.013492 0.102439
0.522865 0.1 0.6 0.987648 0.0137035 0.174612
0.797314 0.1 -3.59473e-17 0.929981 0.0216683 0.135277
0.287374 0.1 0.746002 1.00292 0.013254 0.160225
0.797314 0.1 -0.075 0.930759 0.0215492 0.125402
0.797314 0.1 0.075 0.930163 0.0216745 0.145199
0.756814 0.1 -0.2625 0.944915 0.0192523 0.10536
0.756814 0.1 0.2625 0.943272 0.0196214 0.166818
0.287374 0.1 -0.75 1.00293 0.013195 0.117963
0.574156 0.1 -0.5625 0.982634 0.0140581 0.0993532
0.574156 0.1 0.5625 0.981865 0.0143253 0.177152
0 0.1 0.80701 0.990268 0 0.139173
0 0.1 -0.80701 0.990268 0 0.139173
0.714971 0.1 -0.375 0.957026 0.0175259 0.0981907
0.714971 0.1 0.375 0.955333 0.017948 0.175429
0.0363518 0.1 0.80701 0.993079 0.00715228 0.142422
0.0363518 0.1 -0.80701 0.993066 0.0071515 0.135968
0.797314 0.1 -0.15 0.932478 0.0213129 0.115758
0.797314 0.1 0.15 0.931297 0.0215668 0.154986
0.623803 0.1 -0.525 0.975842 0.0149246 0.0964841
0.623803 0.1 0.525 0.97473 0.0152677 0.179302
0.219992 0.1 0.7875 1.00484 0.0138955 0.155922
0.219992 0.1 -0.7875 1.00482 0.0138897 0.122533
0.149792 0.1 0.80701 1.00066 0.0144382 0.15116
0 0.1 0.825 0.990268 0 0.139173
0 0.1 -0.825 0.990268 0 0.139173
0.797314 0.1 -0.225 0.935079 0.0209486 0.10654
0.797314 0.1 0.225 0.933366 0.0213417 0.164467
0.756813 0.1 -0.3375 0.94818 0.0188098 0.0977503
0.756813 0.1 0.3375 0.946256 0.019274 0.174855
0.67013 0.1 0.4875 0.967324 0.0162363 0.180858
0.67013 0.1 -0.4875 0.968747 0.0158276 0.094155
0.835106 0.1 -0.0375 0.921252 0.0232277 0.129355
0.835106 0.1 0.0375 0.920909 0.0233046 0.140115
0.150379 0.1 -0.825 1.00069 0.0144184 0.127156
0.835106 0.1 -0.1125 0.92267 0.0230208 0.118753
0.835106 0.1 0.1125 0.921642 0.0232452 0.150828
0 0.1 -0.84299 0.990268 0 0.139173
0 0.1 0.84299 0.990268 0 0.139173
0.0363518 0.1 -0.84299 0.993075 0.00713468 0.135831
0.0363518 0.1 0.84299 0.99309 0.00713206 0.142553
0.714971 0.1 -0.45 0.960513 0.017027 0.0921944
0.714971 0.1 0.45 0.958715 0.0175156 0.18187
0.411108 0.1 0.746002 0.998331 0.0126266 0.169794
0.797314 0.1 -0.3 0.938459 0.0204673 0.0979274
0.797314 0.1 0.3 0.936324 0.0209918 0.173485
0.467897 0.1 -0.7125 0.995026 0.0126768 0.103916
0.467897 0.1 0.7125 0.994735 0.0128256 0.173789
0.522865 0.1 0.675 0.989645 0.0133687 0.177428
0.522865 0.1 -0.675 0.990172 0.0131543 0.0998503
0.411108 0.1 -0.75 0.998503 0.0125076 0.108027
0.835106 0.1 -0.1875 0.925123 0.0226647 0.108513
0.835107 0.1 0.1875 0.923434 0.0230541 0.161293
0.286844 0.1 0.80701 1.0034 0.0131136 0.161123
0.574156 0.1 0.6375 0.984278 0.013948 0.180584
0.574157 0.1 -0.6375 0.985032 0.0136727 0.096213
0.350249 0.1 -0.7875 1.00174 0.0123814 0.112545
0.350249 0.1 0.7875 1.0017 0.012446 0.165681
0.756813 0.1 -0.4125 0.951967 0.0182706 0.0908378
0.756814 0.1 0.4125 0.949849 0.018821 0.182212
0.623803 0.1 -0.6 0.97872 0.0144844 0.092723
0.623803 0.1 0.6 0.977617 0.0148428 0.183431
0.075776 0.1 0.8625 0.996205 0.0150085 0.146216
0.075776 0.1 -0.8625 0.996174 0.0150139 0.132206
0.871687 0.1 -3.2767e-18 0.911572 0.0252036 0.134133
0.287374 0.1 -0.825 1.00355 0.0130413 0.11701
0.871687 0.1 -0.075 0.912563 0.0250287 0.122593
0.871687 0.1 0.075 0.91178 0.0252172 0.145739
0.67013 0.1 -0.5625 0.972068 0.0153386 0.0897038
0.67013 0.1 0.5625 0.970637 0.0157735 0.185745
0.835106 0.1 0.2625 0.926251 0.0227225 0.171335
0.835106 0.1 -0.2625 0.928512 0.0221633 0.098861
0.797314 0.1 -0.375 0.942497 0.0198811 0.0900631
0.797314 0.1 0.375 0.940055 0.0205176 0.181868
0 0.1 -0.88201 0.990268 0 0.139173
0 0.1 0.88201 0.990268 0 0.139173
0.0363518 0.1 0.88201 0.99309 0.00713206 0.142553
0.0363518 0.1 -0.88201 0.993075 0.00713468 0.135831
0.871687 0.1 0.15 0.913178 0.0250685 0.157183
0.871687 0.1 -0.15 0.914729 0.0246867 0.111345
0.714971 0.1 0.525 0.962443 0.0170091 0.187601
0.714971 0.1 -0.525 0.964293 0.0164725 0.0869729
0.219993 0.1 0.8625 1.00525 0.0137846 0.15658
0.219992 0.1 -0.8625 1.00521 0.013787 0.121867
0 0.1 0.9 0.990268 0 0.139173
0 0.1 -0.9 0.990268 0 0.139173
0.756813 0.1 0.4875 0.953919 0.0182837 0.188861
0.756814 0.1 -0.4875 0.956147 0.0176588 0.0847712
0.871687 0.1 0.225 0.915733 0.0247582 0.168258
0.871687 0.1 -0.225 0.917992 0.0241747 0.100624
0.835106 0.1 -0.3375 0.932714 0.0215448 0.0899551
0.835106 0.1 0.3375 0.930024 0.0222434 0.180773
0.41063 0.1 0.80701 0.99926 0.0124236 0.171065
0.90582 0.1 -0.0375 0.902539 0.0270234 0.127309
0.905821 0.1 0.0375 0.9021 0.0271385 0.139784
0.522865 0.1 0.746002 0.991632 0.0130317 0.179552
0.150379 0.1 0.9 1.00093 0.0143434 0.151691
0.90582 0.1 0.1125 0.902982 0.0270597 0.152212
0.905821 0.1 -0.1125 0.904298 0.0267243 0.115032
0.522865 0.1 -0.75 0.992175 0.0128076 0.0977604
0.574156 0.1 0.7125 0.986726 0.0135519 0.183442
0.574156 0.1 -0.7125 0.987472 0.0132741 0.0936474
0.797314 0.1 -0.45 0.947065 0.0192024 0.083067
0.797314 0.1 0.45 0.944411 0.0199353 0.189471
0.467897 0.1 -0.7875 0.996579 0.0123839 0.102239
0.467897 0.1 0.7875 0.996297 0.0125306 0.175618
0.150379 0.1 -0.903998 1.00098 0.014343 0.126657
0 0.1 0.91799 0.990268 0 0.139173
0 0.1 -0.91799 0.990268 0 0.139173
0.0363518 0.1 0.91799 0.993096 0.00711465 0.142648
0.0363518 0.1 -0.91799 0.993081 0.00711956 0.13573
0.623803 0.1 0.675 0.98058 0.0143886 0.186912
0.623803 0.1 -0.675 0.981678 0.0140225 0.0896163
0.411108 0.1 -0.825 0.999694 0.01226 0.106717
0.871687 0.1 0.3 0.919384 0.0242821 0.178764
0.871687 0.1 -0.3 0.922236 0.0235108 0.0906387
0.67013 0.1 -0.6375 0.975517 0.0148166 0.0859835
0.67013 0.1 0.6375 0.974083 0.0152662 0.189917
0.90582 0.1 -0.1875 0.90732 0.0262218 0.103204
0.90582 0.1 0.1875 0.905159 0.0267956 0.164339
0.350249 0.1 0.8625 1.00254 0.0122355 0.166734
0.350249 0.1 -0.8625 1.00256 0.0121796 0.111545
0.835106 0.1 -0.4125 0.937584 0.0208062 0.0819625
0.835106 0.1 0.4125 0.934574 0.0216311 0.189433
0.714971 0.1 -0.6 0.968273 0.0158798 0.0825625
0.714971 0.1 0.6 0.966394 0.0164431 0.192549
0.93886 0.1 -1.15648e-17 0.892551 0.029644 0.132916
0.075776 0.1 0.9375 0.996219 0.014973 0.146414
0.075776 0.1 -0.9375 0.996187 0.0149831 0.131994
0.93886 0.1 0.075 0.892784 0.0296694 0.1463
0.93886 0.1 -0.075 0.893777 0.0293918 0.119618
0.756813 0.1 0.5625 0.958327 0.0176667 0.194657
0.756814 0.1 -0.5625 0.960615 0.0169966 0.0795877
0.905821 0.1 -0.2625 0.911489 0.0255386 0.0920845
0.905821 0.1 0.2625 0.90858 0.0263442 0.175959
0.287374 0.1 0.9 1.00416 0.0129124 0.162085
0.287374 0.1 -0.903998 1.00407 0.0128846 0.116231
0.871687 0.1 0.375 0.924002 0.0236466 0.188511
0.871687 0.1 -0.375 0.927317 0.0227128 0.081573
0.93886 0.1 -0.15 0.896431 0.0289102 0.106681
0.93886 0.1 0.15 0.894461 0.0294678 0.159495
0.797314 0.1 0.525 0.949242 0.0192603 0.196194
0.797314 0.1 -0.525 0.95203 0.0184552 0.0770279
0 0.1 0.95701 0.990268 0 0.139173
0 0.1 -0.95701 0.990268 0 0.139173
0.0363518 0.1 0.95701 0.993096 0.00711465 0.142648
0.0363518 0.1 -0.95701 0.993081 0.00711956 0.13573
0.522433 0.1 0.80701 0.993193 0.0127528 0.181174
0.219992 0.1 0.9375 1.00563 0.0136756 0.157067
0.219992 0.1 -0.9375 1.00559 0.0136831 0.121374
0.93886 0.1 0.225 0.89754 0.0290458 0.172244
0.93886 0.1 -0.225 0.900414 0.0282067 0.0943809
0.90582 0.1 0.3375 0.913153 0.0257059 0.186841
0.905821 0.1 -0.3375 0.916684 0.0246922 0.0818572
0.835106 0.1 -0.4875 0.942984 0.0199874 0.0749801
0.835107 0.1 0.4875 0.939751 0.0209099 0.197143
0.969689 0.1 -0.0375 0.883292 0.0320531 0.12514
0.969689 0.1 0.0375 0.882739 0.0322199 0.13946
0.61613 0.1 0.75 0.983569 0.0139182 0.18974
0.574156 0.1 -0.7875 0.989906 0.0128692 0.0916472
0.574156 0.1 0.7875 0.989177 0.0131458 0.185728
0 0.1 0.975 0.990268 0 0.139173
0 0.1 -0.975 0.990268 0 0.139173
0.623803 0.1 -0.75 0.984655 0.0135503 0.0871607
0.969689 0.1 -0.1125 0.885442 0.0316276 0.111063
0.969689 0.1 0.1125 0.88378 0.0321182 0.15373
0.522865 0.1 -0.825 0.994157 0.0124583 0.0961589
0.67013 0.1 0.7125 0.977591 0.0147353 0.193355
0.67013 0.1 -0.7125 0.979023 0.01428 0.0830011
0.871687 0.1 -0.45 0.933063 0.0218061 0.0735728
0.871687 0.1 0.45 0.929417 0.0228724 0.197307
0.467897 0.1 0.8625 0.997843 0.0122316 0.177035
0.467897 0.1 -0.8625 0.998105 0.0120944 0.100975
0.714971 0.1 -0.675 0.972358 0.0152638 0.0789797
0.714971 0.1 0.675 0.970466 0.0158385 0.196684
0.93886 0.1 -0.3 0.905602 0.0273044 0.0829585
0.93886 0.1 0.3 0.901937 0.028408 0.184308
0.150379 0.1 0.975 1.00113 0.0142721 0.151977
0.150379 0.1 -0.975 1.00109 0.0142819 0.126444
0.969689 0.1 -0.1875 0.889111 0.0309323 0.0975397
0.969689 0.1 0.1875 0.886384 0.031758 0.167638
0.411108 0.1 0.9 1.00072 0.0121075 0.17244
0.756813 0.1 0.6375 0.962927 0.0169954 0.199567
0.756814 0.1 -0.6375 0.965257 0.016305 0.0753223
0.990306 0.1 -2.19732e-17 0.877497 0.0335644 0.131918
0 0.1 0.99299 0.990268 0 0.139173
0 0.1 -0.99299 0.990268 0 0.139173
0.411108 0.1 -0.903998 1.0007 0.0120352 0.105711
0.990306 0.1 -0.075 0.878915 0.0332437 0.117246
0.990306 0.1 0.075 0.877751 0.0336032 0.146692
0.0363518 0.1 0.99299 0.9931 0.00710004 0.142709
0.0363518 0.1 -0.99299 0.993084 0.0071061 0.135663
0.90582 0.1 -0.4125 0.92271 0.0237105 0.0727538
0.905821 0.1 0.4125 0.918707 0.0248988 0.196813
0.797314 0.1 -0.6 0.957258 0.0176636 0.0719919
0.797314 0.1 0.6 0.954386 0.0185104 0.201962
0.350249 0.1 0.9375 1.00335 0.012028 0.167505
0.350249 0.1 -0.9375 1.00336 0.0119763 0.110824
0.990306 0.1 0.15 0.879657 0.0333602 0.161255
0.990306 0.1 -0.15 0.881966 0.0326414 0.102987
0.969689 0.1 -0.2625 0.894168 0.0300051 0.0848517
0.969689 0.1 0.2625 0.890482 0.0311489 0.180937
0.835106 0.1 -0.5625 0.948755 0.0190987 0.0690811
0.835106 0.1 0.5625 0.945386 0.0200917 0.20385
0.93886 0.1 -0.375 0.911818 0.0262345 0.0726349
0.93886 0.1 0.375 0.907514 0.0275667 0.195471
0.075776 0.1 1.0125 0.996228 0.0149433 0.146542
0.075776 0.1 -1.0125 0.996194 0.0149556 0.131855
0.990306 0.1 -0.225 0.886541 0.0317736 0.0894471
0.990306 0.1 0.225 0.883164 0.0328463 0.175315
0.287374 0.1 0.975 1.00475 0.0127546 0.162608
0.287374 0.1 -0.975 1.00472 0.0127319 0.115787
0.871687 0.1 -0.525 0.939301 0.0208176 0.0667218
0.871687 0.1 0.525 0.935434 0.0219821 0.20503
1.02149 0.1 -0.0369628 0.866603 0.0365914 0.123312
1.02149 0.1 0.0369628 0.865968 0.0368039 0.138911
0.969689 0.1 -0.3375 0.900476 0.0288595 0.0732333
0.969689 0.1 0.3375 0.89596 0.0303012 0.193355
1.02149 0.1 -0.110888 0.869023 0.0360673 0.107982
1.02149 0.1 0.110888 0.867116 0.0366984 0.154463
0.90582 0.1 0.4875 0.925057 0.0239485 0.205622
0.90582 0.1 -0.4875 0.929364 0.02263 0.0648591
0.623803 0.1 0.819003 0.985643 0.0135729 0.192276
0 0.1 1.03201 0.990268 0 0.139173
0 0.1 -1.03201 0.990268 0 0.139173
0.0363518 0.1 1.03201 0.9931 0.00710004 0.142709
0.0363518 0.1 -1.03201 0.993084 0.0071061 0.135663
0.67013 0.1 -0.7875 0.982511 0.0137367 0.0807392
0.67013 0.1 0.7875 0.981099 0.014192 0.196065
0.623803 0.1 -0.825 0.987591 0.0130752 0.0853378
0.990306 0.1 -0.3 0.892501 0.0306663 0.0768944
0.990306 0.1 0.3 0.888174 0.0320738 0.188603
0.219992 0.1 -1.0125 1.00594 0.0135777 0.121049
0.219993 0.1 1.0125 1.006 0.0135685 0.157387
0.574156 0.1 0.8625 0.99159 0.0127346 0.187465
0.574157 0.1 -0.8625 0.992289 0.0124643 0.0901926
0.714971 0.1 -0.75 0.976459 0.0146372 0.0762161
0.714971 0.1 0.75 0.974576 0.0152141 0.2
1.02149 0.1 0.184814 0.870007 0.036283 0.169633
1.02149 0.1 -0.184814 0.873145 0.0352316 0.0932504
0.756814 0.1 -0.7125 0.969963 0.0155972 0.0719748
0.756814 0.1 0.7125 0.967621 0.0162925 0.203566
0.522865 0.1 0.9 0.995617 0.0123123 0.18291
0.93886 0.1 -0.45 0.918844 0.0250339 0.0635519
0.93886 0.1 0.45 0.914073 0.0265455 0.205513
1.04168 0.1 0 0.859338 0.038804 0.130673
1.04168 0.1 -0.0729162 0.860908 0.0384074 0.114746
1.04168 0.1 0.0729162 0.859589 0.0388668 0.146715
0.522865 0.1 -0.903998 0.995844 0.0121479 0.0949935
0.797314 0.1 -0.675 0.962618 0.016851 0.0679755
0.797314 0.1 0.675 0.959699 0.0177128 0.206735
0.467897 0.1 0.9375 0.999344 0.0119345 0.178051
0.467897 0.1 -0.9375 0.999576 0.0118017 0.1001
0 0.1 1.05 0.990268 0 0.139173
0 0.1 -1.05 0.990268 0 0.139173
0.835106 0.1 -0.6375 0.954747 0.0181821 0.0643038
0.835106 0.1 0.6375 0.951281 0.0192053 0.20948
1.04168 0.1 -0.145832 0.864262 0.0376808 0.0992604
1.04168 0.1 0.145832 0.86164 0.0385963 0.16254
1.02149 0.1 -0.25874 0.878833 0.034124 0.0794133
1.02149 0.1 0.25874 0.874569 0.0355731 0.184146
0.969689 0.1 -0.4125 0.907782 0.0275617 0.0629198
0.969689 0.1 0.4125 0.902639 0.0292351 0.204698
0.411108 0.1 0.975 1.00185 0.0118567 0.173175
0.411108 0.1 -0.975 1.00197 0.0117631 0.10511
0.871687 0.1 -0.6 0.945869 0.0197781 0.0610808
0.871687 0.1 0.6 0.941842 0.0210008 0.211616
1.0579 0.1 -0.0360525 0.854245 0.0403844 0.121971
1.0579 0.1 0.0360525 0.85355 0.0406336 0.138372
0.990306 0.1 -0.375 0.899641 0.0293621 0.065571
0.990306 0.1 0.375 0.894534 0.0310594 0.20088
0.150379 0.1 1.05 1.00131 0.0142044 0.152148
0.150379 0.1 -1.05 1.00126 0.0142158 0.126266
1.0579 0.1 0.108157 0.854695 0.0405324 0.154733
1.0579 0.1 -0.108157 0.856783 0.0397896 0.105851
1.04168 0.1 -0.218749 0.869289 0.0366464 0.0845327
1.04168 0.1 0.218749 0.865436 0.0380048 0.177837
0.90582 0.1 -0.5625 0.936457 0.0214721 0.0582535
0.90582 0.1 0.5625 0.93193 0.022884 0.21326
0 0.1 -1.06799 0.990268 0 0.139173
0 0.1 1.06799 0.990268 0 0.139173
0.0363518 0.1 -1.06799 0.993086 0.00709532 0.135629
0.0363518 0.1 1.06799 0.993102 0.00708806 0.142738
0.350249 0.1 1.0125 1.00412 0.0118247 0.168009
0.350249 0.1 -1.0125 1.00412 0.0117719 0.11037
1.0579 0.1 -0.180262 0.861082 0.0388554 0.0903476
1.0579 0.1 0.180262 0.857641 0.0400873 0.170708
1.02149 0.1 -0.332665 0.88593 0.0327592 0.0667408
1.02149 0.1 0.332665 0.880668 0.0345859 0.197717
0.93886 0.1 -0.525 0.926473 0.0237302 0.0558465
0.93886 0.1 0.525 0.921366 0.0253768 0.214322
1.08012 0.1 5.49329e-18 0.845906 0.0432 0.129653
1.04168 0.1 -0.291665 0.87585 0.0353302 0.0708521
1.04168 0.1 0.291665 0.870876 0.0371101 0.192322
1.08012 0.1 0.0709941 0.846128 0.0432864 0.14655
1.08012 0.1 -0.0709941 0.847564 0.0427459 0.11288
0.969689 0.1 -0.4875 0.915865 0.0261278 0.0539275
0.96969 0.1 0.4875 0.910266 0.0279808 0.214712
1.0579 0.1 0.252367 0.86232 0.0393154 0.186013
1.0579 0.1 -0.252367 0.867013 0.0376212 0.0757611
0.990306 0.1 -0.45 0.907724 0.0279043 0.055632
0.990306 0.1 0.45 0.902016 0.0298277 0.211916
0.287374 0.1 -1.05 1.00527 0.0125773 0.115495
0.287374 0.1 1.05 1.0053 0.0125988 0.162923
0.714971 0.1 0.821002 0.97829 0.0146408 0.202475
1.08012 0.1 -0.141988 0.851065 0.0419302 0.0965609
1.08012 0.1 0.141988 0.848207 0.0430059 0.163232
0.075776 0.1 1.0875 0.996232 0.0149189 0.146602
0.075776 0.1 -1.0875 0.996199 0.0149337 0.131784
0.714971 0.1 -0.825 0.98049 0.0140118 0.0742434
0.756813 0.1 -0.7875 0.974628 0.0148847 0.0695215
0.756814 0.1 0.7875 0.97231 0.015578 0.206663
0.67013 0.1 -0.8625 0.985912 0.0131948 0.0791713
0.67013 0.1 0.8625 0.984547 0.0136469 0.198076
0.797314 0.1 -0.75 0.96798 0.0160345 0.0649607
0.797314 0.1 0.75 0.965064 0.0168917 0.210508
0.623803 0.1 0.9 0.989423 0.0129634 0.193509
0.835106 0.1 -0.7125 0.960808 0.0172549 0.0606413
0.835106 0.1 0.7125 0.957304 0.0182824 0.214016
0.623803 0.1 -0.903998 0.990101 0.0126588 0.0840844
0.574156 0.1 0.9375 0.993925 0.0123261 0.188676
0.574156 0.1 -0.9375 0.99458 0.012064 0.0892496
1.02149 0.1 -0.406591 0.89417 0.0312089 0.0554627
1.02149 0.1 0.406591 0.888119 0.0333429 0.210124
1.08012 0.1 -0.212982 0.856306 0.0407772 0.0810156
1.08012 0.1 0.212982 0.852092 0.0423699 0.179382
1.10076 0.1 -0.0349809 0.838478 0.0457322 0.120469
1.10076 0.1 0.0349809 0.837742 0.0460243 0.137864
0.871687 0.1 -0.675 0.952596 0.0187237 0.0566716
0.871687 0.1 0.675 0.948472 0.0199615 0.217013
1.04168 0.1 -0.364581 0.883735 0.0337754 0.0584767
1.04168 0.1 0.364581 0.877804 0.0359335 0.205736
1.10076 0.1 -0.104943 0.84113 0.045056 0.10336
1.10076 0.1 0.104943 0.838919 0.0459287 0.155223
0.522865 0.1 0.975 0.997497 0.011962 0.183808
0.522865 0.1 -0.975 0.997924 0.0117649 0.0943259