# UMean  POINT_DATA 63840
# x  y  z  UMean_x  UMean_y  UMean_z
0 0.5 3.39583e-17 0.990268 0 0.139173
0 0.5 -0.00617931 0.990268 0 0.139173
0 0.5 0.00617931 0.990268 0 0.139173
0.0124865 0.5 -0.00617931 0.990233 0.000935464 0.139134
0.0124865 0.5 0.00617931 0.990234 0.000935649 0.139255
0 0.5 -0.0688207 0.990268 0 0.139173
0 0.5 0.0688207 0.990268 0 0.139173
0.0124865 0.5 -0.0688207 0.990233 0.000935464 0.139134
0.0124865 0.5 0.0688207 0.990234 0.000935649 0.139255
0 0.5 -0.075 0.990268 0 0.139173
0 0.5 0.075 0.990268 0 0.139173
0 0.5 -0.0811793 0.990268 0 0.139173
0 0.5 0.0811793 0.990268 0 0.139173
0.0124865 0.5 -0.0811793 0.990231 0.000931814 0.139008
0.0124865 0.5 0.0811793 0.990232 0.000932401 0.139381
0.075776 0.5 -0.0375 0.990031 0.00567117 0.13894
0.075776 0.5 0.0375 0.990035 0.00567225 0.13967
0.075776 0.5 -0.1125 0.990021 0.00564889 0.138178
0.075776 0.5 0.1125 0.990026 0.00565238 0.140427
0 0.5 -0.143821 0.990268 0 0.139173
0 0.5 0.143821 0.990268 0 0.139173
0.0124865 0.5 -0.143821 0.990231 0.000931814 0.139008
0.0124865 0.5 0.143821 0.990232 0.000932401 0.139381
0 0.5 -0.15 0.990268 0 0.139173
0 0.5 0.15 0.990268 0 0.139173
0.151149 0.5 -0.00137318 0.988802 0.00951975 0.139363
0 0.5 -0.156179 0.990268 0 0.139173
0 0.5 0.156179 0.990268 0 0.139173
0.0124865 0.5 -0.156179 0.990234 0.000924242 0.138886
0.0124865 0.5 0.156179 0.990235 0.000925383 0.139501
0.151149 0.5 0.075 0.9888 0.0095336 0.140645
0.151149 0.5 -0.075 0.98879 0.00952488 0.137986
0.075776 0.5 -0.1875 0.990035 0.00560313 0.137443
0.075776 0.5 0.1875 0.990039 0.0056098 0.141156
0.151149 0.5 0.15 0.988827 0.00948449 0.141957
0.151149 0.5 -0.15 0.988814 0.00946725 0.136672
0 0.5 -0.218821 0.990268 0 0.139173
0 0.5 0.218821 0.990268 0 0.139173
0.0124865 0.5 -0.218821 0.990234 0.000924242 0.138886
0.0124865 0.5 0.218821 0.990235 0.000925383 0.139501
0.219992 0.5 0.0375 0.987639 0.0131723 0.140275
0.219993 0.5 -0.0375 0.98763 0.0131653 0.138378
0 0.5 -0.225 0.990268 0 0.139173
0 0.5 0.225 0.990268 0 0.139173
0 0.5 -0.231179 0.990268 0 0.139173
0 0.5 0.231179 0.990268 0 0.139173
0.0124865 0.5 -0.231179 0.990236 0.000913291 0.13877
0.0124865 0.5 0.231179 0.990237 0.000914812 0.139618
0.219992 0.5 0.1125 0.987663 0.0131304 0.142131
0.219993 0.5 -0.1125 0.987643 0.0131079 0.136524
0.151149 0.5 -0.225 0.988869 0.00937636 0.135396
0.151149 0.5 0.225 0.988885 0.00940053 0.143231
0.075776 0.5 -0.2625 0.99005 0.00553679 0.136737
0.075776 0.5 0.2625 0.990056 0.00554558 0.14186
0.288069 0.5 -0.00137318 0.984662 0.0167334 0.13931
0.219992 0.5 0.1875 0.987741 0.0130406 0.143962
0.219993 0.5 -0.1875 0.987718 0.0130059 0.13469
0 0.5 0.293821 0.990268 0 0.139173
0 0.5 -0.293821 0.990268 0 0.139173
0.0124865 0.5 -0.293821 0.990236 0.000913291 0.13877
0.0124865 0.5 0.293821 0.990237 0.000914812 0.139618
0.288069 0.5 -0.075 0.984662 0.0167134 0.13675
0.288069 0.5 0.075 0.984678 0.0167382 0.141699
0 0.5 -0.3 0.990268 0 0.139173
0 0.5 0.3 0.990268 0 0.139173
0 0.5 0.306179 0.990268 0 0.139173
0 0.5 -0.306179 0.990268 0 0.139173
0.0124865 0.5 -0.306179 0.99024 0.000899352 0.138659
0.0124865 0.5 0.306179 0.990241 0.0009012 0.139727
0.288069 0.5 -0.15 0.98476 0.0166058 0.134319
0.288069 0.5 0.15 0.984783 0.016654 0.144134
0.151149 0.5 -0.3 0.988943 0.00925458 0.134179
0.151149 0.5 0.3 0.988964 0.00928425 0.144448
0.219992 0.5 -0.2625 0.987829 0.012861 0.132933
0.219992 0.5 0.2625 0.987858 0.0129054 0.145723
0.075776 0.5 0.3375 0.990079 0.00546279 0.142523
0.075776 0.5 -0.3375 0.990069 0.00545222 0.136069
0.350249 0.5 -0.0375 0.981829 0.0201125 0.137598
0.350249 0.5 0.0375 0.981839 0.0201298 0.140654
0.288069 0.5 -0.225 0.984941 0.0164401 0.13196
0.288069 0.5 0.225 0.984968 0.0165082 0.146503
0.350249 0.5 0.1125 0.981942 0.0200669 0.143673
0.350249 0.5 -0.1125 0.981916 0.0200158 0.134586
0 0.5 0.368821 0.990268 0 0.139173
0 0.5 -0.368821 0.990268 0 0.139173
0.0124865 0.5 -0.368821 0.99024 0.000899352 0.138659
0.0124865 0.5 0.368821 0.990241 0.0009012 0.139727
0 0.5 -0.375 0.990268 0 0.139173
0 0.5 0.375 0.990268 0 0.139173
0 0.5 -0.381179 0.990268 0 0.139173
0 0.5 0.381179 0.990268 0 0.139173
0.0124865 0.5 -0.381179 0.990244 0.000882742 0.138556
0.0124865 0.5 0.381179 0.990246 0.000884671 0.139829
0.350249 0.5 -0.1875 0.982126 0.019845 0.131637
0.350249 0.5 0.1875 0.982154 0.0199268 0.146635
0.219992 0.5 -0.3375 0.987973 0.0126758 0.131265
0.219992 0.5 0.3375 0.98801 0.0127281 0.147393
0.151149 0.5 -0.375 0.989036 0.00910453 0.133034
0.151149 0.5 0.375 0.989063 0.00913844 0.145591
0.411736 0.5 -0.00137318 0.977604 0.0235877 0.139048
0.288069 0.5 -0.3 0.98519 0.0162198 0.12971
0.288069 0.5 0.3 0.985222 0.0163046 0.148767
0.411736 0.5 -0.075 0.977641 0.023537 0.135267
0.411736 0.5 0.075 0.977652 0.0235875 0.142581
0.075776 0.5 -0.4125 0.990094 0.00535143 0.135446
0.075776 0.5 0.4125 0.990107 0.00536241 0.14314
0.350249 0.5 -0.2625 0.982444 0.0196053 0.128807
0.350249 0.5 0.2625 0.982473 0.0197131 0.149486
0.411736 0.5 -0.15 0.97787 0.0233669 0.131681
0.411736 0.5 0.15 0.977882 0.0234655 0.146187
0 0.5 -0.443821 0.990268 0 0.139173
0 0.5 0.443821 0.990268 0 0.139173
0.0124865 0.5 -0.443821 0.990244 0.000882742 0.138556
0.0124865 0.5 0.443821 0.990246 0.000884671 0.139829
0 0.5 -0.45 0.990268 0 0.139173
0 0.5 0.45 0.990268 0 0.139173
0 0.5 -0.456179 0.990268 0 0.139173
0 0.5 0.456179 0.990268 0 0.139173
0.0124865 0.5 -0.456179 0.990249 0.000863786 0.138462
0.0124865 0.5 0.456179 0.990251 0.000865641 0.139922
0.219992 0.5 -0.4125 0.988147 0.0124537 0.129708
0.219993 0.5 0.4125 0.988192 0.0125124 0.148952
0.411736 0.5 -0.225 0.978262 0.0231073 0.128213
0.411736 0.5 0.225 0.978265 0.0232496 0.14969
0.467897 0.5 0.0375 0.973564 0.0269068 0.140858
0.467897 0.5 -0.0375 0.97356 0.0268734 0.136595
0.288069 0.5 -0.375 0.985501 0.0159488 0.127597
0.288069 0.5 0.375 0.985539 0.016048 0.150898
0.151149 0.5 -0.45 0.989146 0.00892856 0.131974
0.151149 0.5 0.45 0.989178 0.00896549 0.146649
0.467897 0.5 -0.1125 0.973759 0.0267244 0.132384
0.467897 0.5 0.1125 0.973763 0.0268228 0.145089
0.350249 0.5 0.3375 0.982887 0.0194309 0.152193
0.350249 0.5 -0.3375 0.982854 0.0193008 0.12613
0.075776 0.5 -0.4875 0.990123 0.00523626 0.134875
0.075776 0.5 0.4875 0.990139 0.00524675 0.143703
0.467897 0.5 -0.1875 0.97417 0.0264648 0.128285
0.467897 0.5 0.1875 0.97416 0.0266244 0.14923
0.411736 0.5 -0.3 0.978801 0.0227652 0.124913
0.411736 0.5 0.3 0.978795 0.0229453 0.153037
0 0.5 -0.518821 0.990268 0 0.139173
0 0.5 0.518821 0.990268 0 0.139173
0.0124865 0.5 0.518821 0.990251 0.000865641 0.139922
0.0124865 0.5 -0.518821 0.990249 0.000863786 0.138462
0.523432 0.5 -0.00137318 0.968357 0.0303325 0.138607
0 0.5 -0.525 0.990268 0 0.139173
0 0.5 0.525 0.990268 0 0.139173
0.523432 0.5 -0.075 0.968458 0.0302428 0.133557
0.523432 0.5 0.075 0.968444 0.030331 0.143332
0 0.5 -0.531179 0.990268 0 0.139173
0 0.5 0.531179 0.990268 0 0.139173
0.0124865 0.5 -0.531179 0.990254 0.000842811 0.138377
0.0124865 0.5 0.531179 0.990258 0.000844445 0.140006
0.288069 0.5 -0.45 0.985868 0.0156311 0.125646
0.288069 0.5 0.45 0.985911 0.0157431 0.152871
0.219992 0.5 -0.4875 0.988348 0.0121968 0.128279
0.219993 0.5 0.4875 0.9884 0.0122609 0.150383
0.467897 0.5 -0.2625 0.974784 0.0261032 0.124354
0.467897 0.5 0.2625 0.974753 0.0263177 0.15322
0.350249 0.5 -0.4125 0.983351 0.0189372 0.123641
0.350249 0.5 0.4125 0.983388 0.0190874 0.154719
0.523432 0.5 -0.15 0.968868 0.0299967 0.128776
0.523432 0.5 0.15 0.968828 0.0301694 0.148158
0.151149 0.5 -0.525 0.989271 0.00872887 0.13101
0.151149 0.5 0.525 0.989307 0.00876774 0.147609
0.411736 0.5 -0.375 0.97947 0.0223468 0.121827
0.411736 0.5 0.375 0.979458 0.0225604 0.156183
0.075776 0.5 -0.5625 0.990157 0.00510865 0.134361
0.075776 0.5 0.5625 0.990176 0.0051177 0.144207
0.523432 0.5 -0.225 0.969545 0.0296248 0.124165
0.523432 0.5 0.225 0.969469 0.0298761 0.152843
0.574156 0.5 -0.0375 0.96337 0.0335929 0.135402
0.574156 0.5 0.0375 0.963356 0.0336482 0.140924
0.467897 0.5 0.3375 0.975527 0.02591 0.156993
0.467897 0.5 -0.3375 0.975576 0.0256489 0.120656
0.574156 0.5 -0.1125 0.963715 0.0333818 0.129949
0.574156 0.5 0.1125 0.963665 0.033545 0.146417
0 0.5 -0.593821 0.990268 0 0.139173
0 0.5 0.593821 0.990268 0 0.139173
0.0124865 0.5 -0.593821 0.990254 0.000842811 0.138377
0.0124865 0.5 0.593821 0.990258 0.000844445 0.140006
0.288069 0.5 -0.525 0.986282 0.0152704 0.123877
0.288069 0.5 0.525 0.986328 0.0153937 0.154663
0 0.5 -0.6 0.990268 0 0.139173
0 0.5 0.6 0.990268 0 0.139173
0.350249 0.5 -0.4875 0.983924 0.0185188 0.121367
0.350249 0.5 0.4875 0.983963 0.0186875 0.157035
0.523432 0.5 -0.3 0.970469 0.0291375 0.119792
0.523432 0.5 0.3 0.970353 0.0294588 0.157312
0.219992 0.5 -0.5625 0.988573 0.011908 0.126993
0.219992 0.5 0.5625 0.988627 0.0119761 0.15167
0.574156 0.5 -0.1875 0.96439 0.0330217 0.124653
0.574156 0.5 0.1875 0.964288 0.0332868 0.151787
0 0.5 -0.606179 0.990268 0 0.139173
0 0.5 0.606179 0.990268 0 0.139173
0.0124865 0.5 -0.606179 0.990261 0.000820202 0.138302
0.0124865 0.5 0.606179 0.990264 0.000821444 0.140079
0.411736 0.5 -0.45 0.980255 0.0218587 0.118991
0.411736 0.5 0.45 0.980236 0.0221028 0.159089
0.151149 0.5 -0.6 0.989409 0.00850818 0.130152
0.151149 0.5 0.6 0.989447 0.00854779 0.148463
0.62168 0.5 2.64545e-17 0.957695 0.0368938 0.138082
0.467897 0.5 0.4125 0.976463 0.0254125 0.160509
0.467897 0.5 -0.4125 0.976528 0.0251082 0.117234
0.624316 0.5 0.0729402 0.957503 0.0370758 0.143988
0.624316 0.5 -0.075 0.957565 0.0369398 0.131647
0.574156 0.5 -0.2625 0.965379 0.0325225 0.119602
0.574157 0.5 0.2625 0.965222 0.0328814 0.156958
0.075776 0.5 -0.6375 0.990197 0.00497067 0.133908
0.075776 0.5 0.6375 0.990217 0.00497744 0.144649
0.624316 0.5 -0.15 0.958204 0.036608 0.125622
0.624316 0.5 0.15 0.958068 0.0368751 0.150088
0.523432 0.5 -0.375 0.971612 0.0285448 0.115721
0.523432 0.5 0.375 0.971459 0.0289283 0.161503
0.350249 0.5 -0.5625 0.984558 0.0180515 0.119332
0.350249 0.5 0.5625 0.984597 0.0182365 0.159116
0.624316 0.5 -0.225 0.959237 0.0361118 0.119827
0.624316 0.5 0.225 0.959017 0.0365013 0.156004
0.288069 0.5 0.6 0.98678 0.0150043 0.156258
0.288069 0.5 -0.6 0.986733 0.0148718 0.122308
0.574156 0.5 -0.3375 0.966653 0.0318974 0.114851
0.574156 0.5 0.3375 0.966438 0.032339 0.161838
0.411736 0.5 -0.525 0.981138 0.0213081 0.116437
0.411736 0.5 0.525 0.981111 0.0215795 0.161723
0 0.5 -0.668821 0.990268 0 0.139173
0 0.5 0.668821 0.990268 0 0.139173
0.0124865 0.5 -0.668821 0.990261 0.000820202 0.138302
0.0124865 0.5 0.668821 0.990264 0.000821444 0.140079
0.67013 0.5 0.0375 0.951584 0.0404249 0.140885
0.67013 0.5 -0.0375 0.951627 0.0403436 0.134045
0.219993 0.5 -0.6375 0.988813 0.0115912 0.125861
0.219993 0.5 0.6375 0.988869 0.0116617 0.152804
0 0.5 -0.675 0.990268 0 0.139173
0 0.5 0.675 0.990268 0 0.139173
0.467897 0.5 0.4875 0.977537 0.0248334 0.163722
0.467897 0.5 -0.4875 0.977618 0.0244903 0.114129
0.67013 0.5 -0.1125 0.952153 0.040063 0.127297
0.67013 0.5 0.1125 0.952015 0.0403044 0.147696
0 0.5 -0.681179 0.990268 0 0.139173
0 0.5 0.681179 0.990268 0 0.139173
0.0124865 0.5 -0.681179 0.990268 0.000796285 0.138238
0.0124865 0.5 0.681179 0.990272 0.000797085 0.140141
0.523432 0.5 -0.45 0.972947 0.0278567 0.112004
0.523432 0.5 0.45 0.972758 0.0282962 0.165365
0.151149 0.5 -0.675 0.989557 0.00826968 0.129405
0.151149 0.5 0.675 0.989596 0.00830887 0.149205
0.624316 0.5 -0.3 0.960634 0.0354638 0.114353
0.624316 0.5 0.3 0.960329 0.0359646 0.161642
0.67013 0.5 0.1875 0.952902 0.0399856 0.154354
0.67013 0.5 -0.1875 0.953153 0.0395923 0.120758
0.574156 0.5 -0.4125 0.968179 0.0311577 0.11049
0.574157 0.5 0.4125 0.967907 0.0316734 0.166376
0.708171 0.5 1.88651e-17 0.946064 0.0433252 0.137686
0.075776 0.5 -0.7125 0.99024 0.00482458 0.133519
0.075776 0.5 0.7125 0.990262 0.0048287 0.145025
0.715434 0.5 0.0736268 0.945358 0.0437863 0.144766
0.715434 0.5 -0.075 0.945344 0.043667 0.129562
0.67013 0.5 0.2625 0.954237 0.0394773 0.160751
0.67013 0.5 -0.2625 0.954597 0.0389446 0.114526
0.350249 0.5 -0.6375 0.985237 0.0175419 0.117551
0.350249 0.5 0.6375 0.985274 0.0177408 0.160946
0.411736 0.5 -0.6 0.982096 0.020703 0.114187
0.411736 0.5 0.6 0.982061 0.0209983 0.16406
0.624316 0.5 -0.375 0.96236 0.0346782 0.109282
0.624316 0.5 0.375 0.961967 0.0352785 0.166915
0.715434 0.5 -0.15 0.946257 0.0432415 0.122242
0.715434 0.5 0.15 0.945982 0.043619 0.152013
0.467897 0.5 -0.5625 0.97882 0.0238044 0.111372
0.467897 0.5 0.5625 0.978722 0.0241822 0.166598
0.288069 0.5 -0.675 0.987211 0.0144407 0.120948
0.288069 0.5 0.675 0.987256 0.0145803 0.157644
0.523432 0.5 -0.525 0.974439 0.0270844 0.108682
0.523432 0.5 0.525 0.974219 0.0275738 0.16885
0 0.5 -0.743821 0.990268 0 0.139173
0 0.5 0.743821 0.990268 0 0.139173
0.0124865 0.5 -0.743821 0.990268 0.000796285 0.138238
0.0124865 0.5 0.743821 0.990272 0.000797085 0.140141
0.219992 0.5 0.7125 0.98912 0.0113219 0.153777
0.219992 0.5 -0.7125 0.989065 0.0112508 0.124889
0.715434 0.5 -0.225 0.947713 0.0426106 0.115219
0.715434 0.5 0.225 0.947285 0.0431621 0.159211
0 0.5 -0.75 0.990268 0 0.139173
0 0.5 0.75 0.990268 0 0.139173
0.67013 0.5 0.3375 0.955976 0.0387935 0.166795
0.67013 0.5 -0.3375 0.956453 0.038134 0.10872
0.574156 0.5 -0.4875 0.969916 0.030316 0.106561
0.574156 0.5 0.4875 0.969594 0.0308979 0.170502
0 0.5 -0.756179 0.990268 0 0.139173
0 0.5 0.756179 0.990268 0 0.139173
0.0124865 0.5 -0.756179 0.990276 0.000771483 0.138185
0.0124865 0.5 0.756179 0.990279 0.000771809 0.140192
0.756813 0.5 -0.0375 0.938731 0.0471308 0.132554
0.756813 0.5 0.0375 0.938648 0.0472421 0.140771
0.151149 0.5 -0.75 0.98971 0.00801696 0.128772
0.151149 0.5 0.75 0.989748 0.00805475 0.149832
0.756813 0.5 -0.1125 0.939469 0.0467749 0.124455
0.756813 0.5 0.1125 0.939212 0.0471051 0.148957
0.624316 0.5 -0.45 0.964365 0.0337694 0.104683
0.624316 0.5 0.45 0.963892 0.0344586 0.171752
0.715434 0.5 -0.3 0.949671 0.0417894 0.108614
0.715434 0.5 0.3 0.949091 0.0425006 0.166063
0.756813 0.5 0.1875 0.940398 0.0467242 0.156957
0.756813 0.5 -0.1875 0.940846 0.046185 0.116624
0.67013 0.5 -0.4125 0.958668 0.0371779 0.103407
0.67013 0.5 0.4125 0.958076 0.0379498 0.17237
0.411736 0.5 -0.675 0.983105 0.0200524 0.112256
0.411736 0.5 0.675 0.983062 0.0203674 0.166083
0.467897 0.5 0.6375 0.979989 0.0234683 0.169114
0.467897 0.5 -0.6375 0.980101 0.023061 0.108985
0.075776 0.5 -0.7875 0.990287 0.00467274 0.133195
0.075776 0.5 0.7875 0.990308 0.00467413 0.145336
0.350249 0.5 -0.7125 0.985945 0.0169976 0.116036
0.350249 0.5 0.7125 0.98598 0.0172072 0.162512
0.523432 0.5 -0.6 0.976051 0.02624 0.105783
0.523432 0.5 0.6 0.975802 0.026773 0.171926
0.797732 0.5 2.68882e-17 0.931645 0.0506744 0.136212
0.756813 0.5 -0.2625 0.942826 0.0453768 0.109189
0.756814 0.5 0.2625 0.942185 0.0461091 0.164632
0.797732 0.5 0.0736268 0.931982 0.0506358 0.145446
0.797732 0.5 -0.075 0.932131 0.050412 0.12733
0.288069 0.5 -0.75 0.987703 0.0139836 0.119805
0.288069 0.5 0.75 0.987746 0.0141278 0.158814
0.574156 0.5 -0.5625 0.97182 0.0293861 0.103104
0.574157 0.5 0.5625 0.971453 0.0300267 0.174178
0.715434 0.5 -0.375 0.952078 0.0407954 0.102525
0.715434 0.5 0.375 0.951347 0.0416509 0.172452
0.797732 0.5 -0.15 0.93336 0.0498864 0.118664
0.797732 0.5 0.15 0.932906 0.0503865 0.153959
0.624316 0.5 -0.525 0.966595 0.0327532 0.100605
0.624316 0.5 0.525 0.966052 0.0335212 0.1761
0.219992 0.5 -0.7875 0.989322 0.010892 0.124081
0.219992 0.5 0.7875 0.989376 0.0109621 0.154585
0 0.5 -0.818821 0.990268 0 0.139173
0 0.5 0.818821 0.990268 0 0.139173
0.0124865 0.5 0.818821 0.990279 0.000771809 0.140192
0.0124865 0.5 -0.818821 0.990276 0.000771483 0.138185
0 0.5 -0.825 0.990268 0 0.139173
0 0.5 0.825 0.990268 0 0.139173
0.756813 0.5 0.3375 0.944524 0.045277 0.171867
0.756814 0.5 -0.3375 0.94535 0.0443675 0.102296
0.67013 0.5 -0.4875 0.961174 0.036093 0.0986569
0.67013 0.5 0.4875 0.960484 0.0369656 0.177431
0.797732 0.5 -0.225 0.935302 0.0491117 0.11037
0.797732 0.5 0.225 0.934604 0.049844 0.162492
0 0.5 -0.831179 0.990268 0 0.139173
0 0.5 0.831179 0.990268 0 0.139173
0.0124865 0.5 -0.831179 0.990283 0.0007461 0.138142
0.0124865 0.5 0.831179 0.990287 0.000745977 0.140232
0.835106 0.5 0.0375 0.924828 0.0540675 0.140606
0.835106 0.5 -0.0375 0.924962 0.0539236 0.130956
0.151149 0.5 -0.825 0.989866 0.00775389 0.128256
0.151149 0.5 0.825 0.989903 0.00778955 0.150341
0.835106 0.5 0.1125 0.925536 0.0539147 0.150223
0.835106 0.5 -0.1125 0.925944 0.0534877 0.121453
0.715434 0.5 -0.45 0.954865 0.0396483 0.0970327
0.715434 0.5 0.45 0.953992 0.0406322 0.178289
0.797732 0.5 -0.3 0.937901 0.0481064 0.102594
0.797732 0.5 0.3 0.936965 0.0490526 0.170597
0.467897 0.5 0.7125 0.981308 0.0227022 0.171255
0.467897 0.5 -0.7125 0.981432 0.0222711 0.106978
0.523432 0.5 -0.675 0.977741 0.0253367 0.103326
0.523432 0.5 0.675 0.977469 0.0259058 0.174571
0.411736 0.5 -0.75 0.984143 0.019366 0.110652
0.411736 0.5 0.75 0.984092 0.0196959 0.167782
0.835106 0.5 -0.1875 0.92775 0.0527719 0.112278
0.835106 0.5 0.1875 0.927053 0.0534701 0.159617
0.574156 0.5 -0.6375 0.97384 0.0283828 0.100146
0.574157 0.5 0.6375 0.973435 0.0290733 0.177373
0.350249 0.5 -0.7875 0.986668 0.0164268 0.114789
0.350249 0.5 0.7875 0.986699 0.0166432 0.163811
0.756813 0.5 -0.4125 0.94835 0.0431784 0.0960006
0.756814 0.5 0.4125 0.947339 0.0442463 0.178514
0.075776 0.5 -0.8625 0.990333 0.00451735 0.132935
0.075776 0.5 0.8625 0.990354 0.00451622 0.145582
0.624316 0.5 0.6 0.968389 0.0324827 0.179913
0.624316 0.5 -0.6 0.968993 0.0316464 0.097085
0.872064 0.5 5.91974e-17 0.917661 0.0574077 0.135303
0.870122 0.5 0.075 0.918444 0.0571972 0.146096
0.288069 0.5 -0.825 0.988201 0.0135075 0.118878
0.288069 0.5 0.825 0.988241 0.0136532 0.159767
0.67013 0.5 -0.5625 0.963907 0.0348985 0.0945193
0.67013 0.5 0.5625 0.963131 0.0358594 0.181911
0.872064 0.5 -0.075 0.918299 0.0570883 0.124985
0.835106 0.5 -0.2625 0.930334 0.0517939 0.103598
0.835106 0.5 0.2625 0.92934 0.0527451 0.16862
0.797732 0.5 -0.375 0.94108 0.0468913 0.0954628
0.797732 0.5 0.375 0.939915 0.0480324 0.17814
0.872064 0.5 0.14794 0.919213 0.0570901 0.155927
0.872064 0.5 -0.15 0.919877 0.0564591 0.114928
0.715434 0.5 -0.525 0.957951 0.0383691 0.0922088
0.715434 0.5 0.525 0.956955 0.0394665 0.183512
0.219992 0.5 0.8625 0.989632 0.0105879 0.15523
0.219993 0.5 -0.8625 0.989581 0.0105202 0.123435
0 0.5 -0.893821 0.990268 0 0.139173
0 0.5 0.893821 0.990268 0 0.139173
0.0124865 0.5 -0.893821 0.990283 0.0007461 0.138142
0.0124865 0.5 0.893821 0.990287 0.000745977 0.140232
0 0.5 -0.9 0.990268 0 0.139173
0 0.5 0.9 0.990268 0 0.139173
0.756813 0.5 -0.4875 0.951736 0.041833 0.090432
0.756813 0.5 0.4875 0.950558 0.0430407 0.184534
0.872064 0.5 -0.225 0.922353 0.055536 0.105326
0.872064 0.5 0.225 0.921341 0.0564619 0.165835
0.835106 0.5 -0.3375 0.93361 0.0505768 0.0955507
0.835106 0.5 0.3375 0.932344 0.0517582 0.177076
0 0.5 0.906179 0.990268 0 0.139173
0 0.5 -0.906179 0.990268 0 0.139173
0.0124865 0.5 -0.906179 0.99029 0.000720569 0.138109
0.0124865 0.5 0.906179 0.990293 0.00072004 0.140262
0.90582 0.5 -0.0375 0.910791 0.0605796 0.129282
0.90582 0.5 0.0375 0.910603 0.0607574 0.140402
0.151149 0.5 -0.9 0.990021 0.00748449 0.127853
0.151149 0.5 0.9 0.990056 0.00751755 0.150737
0.90582 0.5 -0.1125 0.912034 0.0600621 0.118338
0.905821 0.5 0.1125 0.911462 0.0605905 0.151486
0.523432 0.5 -0.75 0.979471 0.0243882 0.101316
0.523432 0.5 0.75 0.979182 0.0249852 0.176775
0.574156 0.5 -0.7125 0.975927 0.027322 0.0976986
0.574156 0.5 0.7125 0.975494 0.0280526 0.180068
0.797732 0.5 -0.45 0.94475 0.0454912 0.0890804
0.797732 0.5 0.45 0.943366 0.0468062 0.185002
0.467897 0.5 0.7875 0.98265 0.021895 0.173015
0.467897 0.5 -0.7875 0.982783 0.0214465 0.105354
0.624316 0.5 -0.675 0.971495 0.0304672 0.0941428
0.624316 0.5 0.675 0.970844 0.03136 0.183167
0.411736 0.5 -0.825 0.985187 0.018654 0.109371
0.411736 0.5 0.825 0.985132 0.0189932 0.169158
0.872064 0.5 0.3 0.924302 0.0555395 0.175229
0.872064 0.5 -0.3 0.925656 0.0543409 0.0963468
0.67013 0.5 -0.6375 0.966796 0.0336144 0.0910235
0.67013 0.5 0.6375 0.965948 0.03465 0.185776
0.90582 0.5 0.1875 0.913331 0.060084 0.162308
0.905821 0.5 -0.1875 0.914299 0.059219 0.107787
0.350249 0.5 -0.8625 0.987391 0.0158379 0.113807
0.350249 0.5 0.8625 0.987419 0.0160566 0.164844
0.835106 0.5 -0.4125 0.937493 0.0491426 0.088308
0.835106 0.5 0.4125 0.935956 0.050535 0.184861
0.715434 0.5 -0.6 0.961254 0.0369798 0.0880919
0.715434 0.5 0.6 0.960155 0.0381755 0.188061
0.939201 0.5 2.75387e-17 0.903074 0.0642074 0.134346
0.075776 0.5 0.9375 0.990396 0.00435716 0.145765
0.075776 0.5 -0.9375 0.990376 0.00436069 0.132738
0.939111 0.5 0.075 0.903514 0.0642015 0.147231
0.939201 0.5 -0.075 0.903883 0.0638266 0.12252
0.756813 0.5 0.5625 0.954096 0.0416861 0.189822
0.756814 0.5 -0.5625 0.955412 0.0403548 0.0856272
0.90582 0.5 0.2625 0.916153 0.0592511 0.17267
0.905821 0.5 -0.2625 0.917526 0.0580699 0.0978323
0.288069 0.5 -0.9 0.988696 0.0130191 0.118163
0.288069 0.5 0.9 0.988734 0.0131639 0.160507
0.872064 0.5 -0.375 0.929688 0.0528987 0.0881642
0.872064 0.5 0.375 0.928006 0.0543464 0.183954
0.939201 0.5 0.148627 0.905016 0.0638262 0.158169
0.939201 0.5 -0.15 0.905845 0.0630851 0.111007
0.797732 0.5 -0.525 0.948799 0.0439334 0.0835202
0.797732 0.5 0.525 0.947227 0.0454011 0.191098
0.219992 0.5 0.9375 0.989888 0.010206 0.155715
0.219992 0.5 -0.9375 0.98984 0.0101414 0.122948
0.939201 0.5 -0.225 0.908909 0.0620011 0.100038
0.939201 0.5 0.225 0.907529 0.063135 0.169335
0.905821 0.5 -0.3375 0.921622 0.0566419 0.0886434
0.90582 0.5 0.3375 0.919857 0.0581121 0.182374
0.835106 0.5 -0.4875 0.941862 0.0475231 0.0819222
0.835106 0.5 0.4875 0.94008 0.0490999 0.191812
0 0.5 0.968821 0.990268 0 0.139173
0 0.5 -0.968821 0.990268 0 0.139173
0.0124865 0.5 -0.968821 0.99029 0.000720569 0.138109
0.0124865 0.5 0.968821 0.990293 0.00072004 0.140262
0.969689 0.5 -0.0375 0.89583 0.0674954 0.127516
0.969689 0.5 0.0375 0.895574 0.0677103 0.140216
0.574156 0.5 -0.7875 0.978034 0.0262197 0.0957576
0.574156 0.5 0.7875 0.977584 0.0269798 0.182261
0 0.5 -0.975 0.990268 0 0.139173
0 0.5 0.975 0.990268 0 0.139173
0.624316 0.5 -0.75 0.974043 0.0292338 0.0917809
0.624316 0.5 0.75 0.97336 0.0301705 0.18585
0.969689 0.5 -0.1125 0.897372 0.0668848 0.115027
0.96969 0.5 0.1125 0.896594 0.0675242 0.152874
0.523432 0.5 -0.825 0.981203 0.0234082 0.0997462
0.523432 0.5 0.825 0.980904 0.0240244 0.178539
0.67013 0.5 0.7125 0.968867 0.0333573 0.189006
0.67013 0.5 -0.7125 0.969765 0.0322615 0.0881805
0 0.5 -0.981179 0.990268 0 0.139173
0 0.5 0.981179 0.990268 0 0.139173
0.467897 0.5 0.8625 0.98399 0.0210575 0.174399
0.467897 0.5 -0.8625 0.984127 0.0205987 0.104104
0.0124865 0.5 -0.981179 0.990296 0.00069521 0.138087
0.0124865 0.5 0.981179 0.990299 0.000694221 0.140283
0.872064 0.5 -0.45 0.934322 0.0512392 0.0808925
0.872064 0.5 0.45 0.932341 0.0529099 0.191851
0.715434 0.5 -0.675 0.964686 0.0355042 0.084704
0.715434 0.5 0.675 0.963509 0.0367808 0.191908
0.939201 0.5 -0.3 0.912987 0.0605995 0.0898167
0.939201 0.5 0.3 0.911141 0.0620706 0.180068
0.151149 0.5 0.975 0.990207 0.00724275 0.151023
0.151149 0.5 -0.975 0.990174 0.00721265 0.127558
0.969689 0.5 -0.1875 0.900159 0.0658945 0.10301
0.969689 0.5 0.1875 0.898847 0.0669426 0.16522
0.756813 0.5 -0.6375 0.959281 0.0387697 0.081625
0.756813 0.5 0.6375 0.957851 0.0402057 0.194348
0.411736 0.5 -0.9 0.986219 0.0179256 0.108404
0.411736 0.5 0.9 0.986161 0.0182689 0.170216
0.90582 0.5 -0.4125 0.926462 0.054962 0.0804319
0.90582 0.5 0.4125 0.924326 0.0566966 0.191287
0.995005 0.5 0.0749309 0.89056 0.0697435 0.147751
0.797732 0.5 -0.6 0.953116 0.042246 0.0788308
0.797732 0.5 0.6 0.951388 0.0438455 0.196374
1.00005 0.5 -8.47123e-18 0.888833 0.0702335 0.133369
0.350249 0.5 -0.9375 0.988103 0.0152382 0.11308
0.350249 0.5 0.9375 0.988128 0.0154565 0.165618
1.00005 0.5 -0.0749309 0.889817 0.0697995 0.120123
0.969689 0.5 -0.2625 0.904111 0.0645474 0.0917009
0.969689 0.5 0.2625 0.902262 0.0659811 0.177021
0.835106 0.5 -0.5625 0.946584 0.0457487 0.0764712
0.835106 0.5 0.5625 0.944602 0.0474864 0.197903
1.00005 0.5 -0.149862 0.892175 0.0689643 0.107238
0.939201 0.5 -0.375 0.917953 0.0589103 0.0805369
0.939201 0.5 0.375 0.915666 0.0606903 0.190006
1.00029 0.5 0.148988 0.891182 0.0698012 0.160049
0.075776 0.5 -1.0125 0.990413 0.00420503 0.132602
0.075776 0.5 1.0125 0.99043 0.00419906 0.145888
0.288069 0.5 0.975 0.989218 0.012667 0.161041
0.288069 0.5 -0.975 0.989183 0.0125244 0.117648
0.872064 0.5 -0.525 0.939413 0.0493957 0.0746012
0.872064 0.5 0.525 0.937177 0.0512623 0.198821
1.00005 0.5 0.224793 0.894077 0.0690743 0.172557
1.00005 0.5 -0.224793 0.89584 0.0677478 0.0949728
0.969689 0.5 0.3375 0.906743 0.0646633 0.188041
0.96969 0.5 -0.3375 0.909123 0.0628738 0.0813128
1.0271 0.5 -0.0368226 0.881608 0.0733653 0.125939
1.0271 0.5 0.0368226 0.881295 0.0736059 0.139828
0.90582 0.5 0.4875 0.929427 0.0550336 0.199188
0.905821 0.5 -0.4875 0.931869 0.0530689 0.0732188
1.0271 0.5 -0.110468 0.883398 0.0727067 0.112279
1.0271 0.5 0.110468 0.882046 0.0736838 0.156917
0.67013 0.5 0.7875 0.97182 0.032001 0.191598
0.67013 0.5 -0.7875 0.972745 0.0308607 0.0859812
0.624316 0.5 0.825 0.975882 0.0289318 0.187967
0.624316 0.5 -0.825 0.976579 0.0279645 0.089986
0.219993 0.5 -1.0125 0.990101 0.00976046 0.122608
0.219993 0.5 1.0125 0.990146 0.00982124 0.156049
0.574156 0.5 -0.8625 0.980117 0.0250908 0.0943085
0.574156 0.5 0.8625 0.979661 0.02587 0.183958
0.715434 0.5 -0.75 0.968163 0.0339662 0.0820427
0.715434 0.5 0.75 0.966936 0.0353052 0.195043
0.756813 0.5 0.7125 0.961731 0.0386241 0.19809
0.756814 0.5 -0.7125 0.963239 0.037105 0.0784342
0.523432 0.5 -0.9 0.982902 0.0224094 0.0986001
0.523432 0.5 0.9 0.982603 0.0230362 0.179874
0.939201 0.5 -0.45 0.923633 0.0569704 0.0723147
0.939201 0.5 0.45 0.920963 0.0590266 0.198971
1.04168 0.5 0 0.877268 0.0751902 0.132609
1.0271 0.5 -0.184113 0.88662 0.0716456 0.0991262
1.0271 0.5 0.184113 0.885027 0.0728231 0.167189
0 0.5 -1.04382 0.990268 0 0.139173
0 0.5 1.04382 0.990268 0 0.139173
0.0124865 0.5 -1.04382 0.990296 0.00069521 0.138087
0.0124865 0.5 1.04382 0.990299 0.000694221 0.140283
1.00005 0.5 -0.299723 0.900709 0.0661771 0.0835696
1.00005 0.5 0.299723 0.898351 0.0679016 0.184561
1.04168 0.5 -0.0729162 0.878351 0.0747317 0.118529
1.04168 0.5 0.0729162 0.877692 0.0752233 0.146783
0.797732 0.5 -0.675 0.957585 0.040458 0.0750362
0.797732 0.5 0.675 0.955737 0.0421662 0.200795
0.467897 0.5 0.9375 0.985302 0.0202005 0.175422
0.467897 0.5 -0.9375 0.985438 0.0197378 0.10321
0 0.5 -1.05 0.990268 0 0.139173
0 0.5 1.05 0.990268 0 0.139173
0.835106 0.5 -0.6375 0.951543 0.0438511 0.0719952
0.835106 0.5 0.6375 0.949385 0.0457252 0.203071
1.04168 0.5 -0.145832 0.880924 0.0738579 0.104823
1.04168 0.5 0.145832 0.879594 0.0748313 0.160769
0.969689 0.5 -0.4125 0.915004 0.060909 0.0720194
0.96969 0.5 0.4125 0.912162 0.0630223 0.198117
0 0.5 -1.05618 0.990268 0 0.139173
0 0.5 1.05618 0.990268 0 0.139173
0.0124865 0.5 -1.05618 0.9903 0.000670212 0.138074
0.0124865 0.5 1.05618 0.990303 0.000668937 0.140294
1.05695 0.5 -0.0360764 0.873296 0.0767322 0.125041
1.05695 0.5 0.0360764 0.872947 0.0769867 0.139513
0.411736 0.5 -0.975 0.987219 0.0171888 0.107735
0.411736 0.5 0.975 0.987162 0.0175325 0.170969
0.872064 0.5 -0.6 0.944824 0.0474015 0.0693613
0.872064 0.5 0.6 0.942367 0.0494381 0.204815
1.0271 0.5 -0.257759 0.891179 0.0702056 0.0867367
1.0271 0.5 0.257759 0.888939 0.0718202 0.180119
0.151149 0.5 -1.05 0.990327 0.00694063 0.127366
0.151149 0.5 1.05 0.990357 0.0069675 0.151206
1.05695 0.5 0.108229 0.873331 0.0771493 0.154308
1.05695 0.5 -0.108229 0.875185 0.0760511 0.110804
1.04168 0.5 -0.218749 0.884914 0.0725884 0.0917602
1.04168 0.5 0.218749 0.882906 0.0740242 0.174291
0.90582 0.5 -0.5625 0.937696 0.0509945 0.0671306
0.905821 0.5 0.5625 0.934983 0.0531652 0.206088
1.00005 0.5 -0.374654 0.906618 0.0642861 0.0732289
1.00005 0.5 0.374654 0.903708 0.0663759 0.195655
0.350249 0.5 1.0125 0.988813 0.0148501 0.166148
0.350249 0.5 -1.0125 0.988792 0.0146335 0.11259
1.05695 0.5 -0.180382 0.87857 0.0749588 0.0970885
1.05695 0.5 0.180382 0.876793 0.0762081 0.16804
1.07319 0.5 0.0709442 0.868759 0.0788613 0.149868
0.939201 0.5 -0.525 0.929857 0.054819 0.0652743
0.939201 0.5 0.525 0.926852 0.0571181 0.206862
1.0271 0.5 -0.331404 0.896949 0.0684167 0.0753513
1.0271 0.5 0.331404 0.894069 0.0704385 0.192213
1.08112 0.5 3.23815e-17 0.865767 0.0797475 0.131817
1.04168 0.5 -0.291665 0.890213 0.0709497 0.0795973
1.04168 0.5 0.291665 0.887529 0.0728214 0.187093
1.08112 0.5 -0.0709442 0.866934 0.0792681 0.116971
0.969689 0.5 -0.4875 0.921559 0.0586987 0.0638818
0.96969 0.5 0.4875 0.918324 0.0610965 0.207049
1.05695 0.5 0.252535 0.880856 0.0751945 0.181541
1.05695 0.5 -0.252535 0.88335 0.073479 0.0841553
0.288069 0.5 -1.05 0.989656 0.0120268 0.117322
0.288069 0.5 1.05 0.989687 0.0121661 0.161384
0.075776 0.5 -1.0875 0.990441 0.00405143 0.13252
0.075776 0.5 1.0875 0.990457 0.00404356 0.145955
1.08112 0.5 -0.141888 0.869671 0.0783644 0.102508
1.08145 0.5 0.140165 0.868497 0.0792913 0.161917
0.715434 0.5 0.825 0.970359 0.0337712 0.197473
0.715434 0.5 -0.825 0.971607 0.032389 0.0800852
0.756813 0.5 0.7875 0.965643 0.0369672 0.201045
0.756814 0.5 -0.7875 0.967194 0.0353878 0.076035
0.67013 0.5 -0.8625 0.975675 0.0294319 0.0844012
0.67013 0.5 0.8625 0.974745 0.030601 0.193566
0.797732 0.5 -0.75 0.962087 0.0385991 0.0721274
0.797732 0.5 0.75 0.960171 0.0403914 0.20435
0.624316 0.5 -0.9 0.979053 0.0266762 0.0887323
0.624316 0.5 0.9 0.97836 0.0276613 0.189534
1.00005 0.5 -0.449585 0.913368 0.0621152 0.0641156
1.00005 0.5 0.449585 0.909968 0.0645341 0.205652
0.835106 0.5 -0.7125 0.956587 0.0418619 0.0685019
0.835106 0.5 0.7125 0.954323 0.0438452 0.207295
0.574156 0.5 -0.9375 0.982135 0.0239498 0.0933252
0.574157 0.5 0.9375 0.981687 0.0247379 0.185178
1.10076 0.5 -0.0349809 0.859887 0.0819628 0.123766
1.10076 0.5 0.0349809 0.859499 0.0822335 0.139122
1.08112 0.5 -0.212832 0.873909 0.0770556 0.0887053
1.08112 0.5 0.212832 0.871641 0.0785949 0.175803
0.872064 0.5 -0.675 0.950404 0.0452935 0.0651983
0.872064 0.5 0.675 0.947779 0.0474687 0.209789
1.04168 0.5 -0.364581 0.89665 0.0689762 0.0685442
1.04168 0.5 0.364581 0.893329 0.0712501 0.198944