# p  POINT_DATA 90431
# x  y  z  p
4 0 0 -0.273987
4 0.00256965 0 -0.273947
4 0.00518642 0 -0.274023
4 0.00785119 0 -0.27437
4 0.00128135 -0.00996393 -0.279145
4 0.00128135 0.00996393 -0.268391
4 0.0105648 0 -0.274972
4 0.00386754 -0.00996393 -0.278916
4 0.00386754 0.00996393 -0.268441
4 0.00650117 -0.00996393 -0.279234
4 0.00650117 0.00996393 -0.268606
4 0.0133283 0 -0.275929
4 0.00918309 -0.00996393 -0.279753
4 0.00918309 0.00996393 -0.268988
4 0.0119142 -0.00996393 -0.28056
4 0.0119142 0.00996393 -0.269693
4 0.0161424 0 -0.277311
4 0.0146955 -0.00996393 -0.281761
4 0.0146955 0.00996393 -0.270827
4 0.0190081 0 -0.279125
4 0 -0.02 -0.282156
4 0 0.02 -0.263248
4 0.0175277 -0.00996393 -0.283406
4 0.0175277 0.00996393 -0.272411
4 0.00256965 -0.02 -0.282024
4 0.00256965 0.02 -0.263336
4 0.00518642 -0.02 -0.282043
4 0.00518642 0.02 -0.263448
4 0.00785119 -0.02 -0.282439
4 0.00785119 0.02 -0.2636
4 0.0219263 0 -0.281352
4 0.0105648 -0.02 -0.28305
4 0.0105648 0.02 -0.26399
4 0.0204118 -0.00996393 -0.285487
4 0.0204118 0.00996393 -0.274402
4 0.0133283 -0.02 -0.283958
4 0.0133283 0.02 -0.264708
4 0.0248981 0 -0.283997
4 0.0233489 -0.00996393 -0.287973
4 0.0233489 0.00996393 -0.276806
4 0.0161424 -0.02 -0.285225
4 0.0161424 0.02 -0.265801
4 0.0190081 -0.02 -0.286871
4 0.0190081 0.02 -0.267258
4 0.0279244 0 -0.287089
4 0.0263398 -0.00996393 -0.290868
4 0.0263398 0.00996393 -0.279664
4 0.0219263 -0.02 -0.28889
4 0.0219263 0.02 -0.26907
4 0.00128135 -0.0298918 -0.284826
4 0.00128135 0.0298918 -0.257637
4 0.00386754 -0.0298918 -0.284513
4 0.00386754 0.0298918 -0.25792
4 0.00650117 -0.0298918 -0.284808
4 0.00650117 0.0298918 -0.257866
4 0.0310063 0 -0.290672
4 0.0293856 -0.00996393 -0.294188
4 0.0293856 0.00996393 -0.283032
4 0.00918309 -0.0298918 -0.285263
4 0.00918309 0.0298918 -0.257976
4 0.0248981 -0.02 -0.291278
4 0.0248981 0.02 -0.271265
4 0.0119142 -0.0298918 -0.285939
4 0.0119142 0.0298918 -0.258339
4 0.0146955 -0.0298918 -0.286907
4 0.0146955 0.0298918 -0.259024
4 0.0324873 -0.00996393 -0.297973
4 0.0324873 0.00996393 -0.286971
4 0.0341446 0 -0.29481
4 0.0279244 -0.02 -0.294037
4 0.0279244 0.02 -0.273899
4 0.0175277 -0.0298918 -0.288196
4 0.0175277 0.0298918 -0.260021
4 0.0204118 -0.0298918 -0.289813
4 0.0204118 0.0298918 -0.261312
4 0.0310063 -0.02 -0.297174
4 0.0310063 0.02 -0.277042
4 0.0356458 -0.00996393 -0.302277
4 0.0356458 0.00996393 -0.291587
4 0.0373405 0 -0.299574
4 0.0233489 -0.0298918 -0.291768
4 0.0233489 0.0298918 -0.262916
4 0.0341446 -0.02 -0.300696
4 0.0341446 0.02 -0.280776
4 0.0263398 -0.0298918 -0.294061
4 0.0263398 0.0298918 -0.264882
4 0 0.04 -0.256926
4 0 -0.04 -0.28573
4 0.00256965 0.04 -0.257045
4 0.00256965 -0.04 -0.285598
4 0.0388623 -0.00996393 -0.307144
4 0.0388623 0.00996393 -0.296958
4 0.00518642 0.04 -0.257115
4 0.00518642 -0.04 -0.285576
4 0.040595 0 -0.305
4 0.00785119 -0.04 -0.285878
4 0.00785119 0.04 -0.25708
4 0.0105648 -0.04 -0.286349
4 0.0105648 0.04 -0.257188
4 0.0293856 -0.0298918 -0.296676
4 0.0293856 0.0298918 -0.267285
4 0.0133283 -0.04 -0.287038
4 0.0133283 0.04 -0.257512
4 0.0373405 -0.02 -0.304604
4 0.0373405 0.02 -0.285172
4 0.0161424 -0.04 -0.287982
4 0.0161424 0.04 -0.258081
4 0.0421378 -0.00996393 -0.312619
4 0.0421378 0.00996393 -0.303054
4 0.0439092 0 -0.311015
4 0.0324873 -0.0298918 -0.2996
4 0.0324873 0.0298918 -0.270212
4 0.0190081 0.04 -0.258878
4 0.0190081 -0.04 -0.289192
4 0.040595 -0.02 -0.308911
4 0.040595 0.02 -0.290245
4 0.0219263 0.04 -0.259886
4 0.0219263 -0.04 -0.290644
4 0.0356458 -0.0298918 -0.302779
4 0.0356458 0.0298918 -0.273739
4 0.0454733 -0.00996393 -0.318534
4 0.0454733 0.00996393 -0.309725
4 0.0248981 0.04 -0.261122
4 0.0248981 -0.04 -0.292315
4 0.0472842 0 -0.317484
4 0.0439092 -0.02 -0.313587
4 0.0439092 0.02 -0.295918
4 0.0279244 0.04 -0.262636
4 0.0279244 -0.04 -0.294227
4 0.0388623 -0.0298918 -0.306177
4 0.0388623 0.0298918 -0.277895
4 0.00128135 0.0498196 -0.255834
4 0.00128135 -0.0498196 -0.286389
4 0.0488701 -0.00996393 -0.324841
4 0.0488701 0.00996393 -0.316769
4 0.00386754 0.0498196 -0.256001
4 0.00386754 -0.0498196 -0.28616
4 0.00650117 -0.0498196 -0.286321
4 0.00650117 0.0498196 -0.255881
4 0.0310063 0.04 -0.2645
4 0.0310063 -0.04 -0.296402
4 0.00918309 -0.0498196 -0.286621
4 0.00918309 0.0498196 -0.2558
4 0.0507211 0 -0.324216
4 0.0119142 -0.0498196 -0.287086
4 0.0119142 0.0498196 -0.25584
4 0.0472842 -0.02 -0.318569
4 0.0472842 0.02 -0.302026
4 0.0421378 -0.0298918 -0.309793
4 0.0421378 0.0298918 -0.282641
4 0.0146955 -0.0498196 -0.287752
4 0.0146955 0.0498196 -0.256061
4 0.0341446 0.04 -0.266792
4 0.0341446 -0.04 -0.298815
4 0.0175277 -0.0498196 -0.288634
4 0.0175277 0.0498196 -0.256457
4 0.0523291 -0.00996393 -0.331345
4 0.0523291 0.00996393 -0.323868
4 0.0204118 0.0498196 -0.256987
4 0.0204118 -0.0498196 -0.289727
4 0.054221 0 -0.330964
4 0.0454733 -0.0298918 -0.313626
4 0.0454733 0.0298918 -0.287879
4 0.0507211 -0.02 -0.323776
4 0.0507211 0.02 -0.308332
4 0.0373405 0.04 -0.269567
4 0.0373405 -0.04 -0.301417
4 0.0233489 0.0498196 -0.257628
4 0.0233489 -0.0498196 -0.290927
4 0.0263398 0.0498196 -0.258398
4 0.0263398 -0.0498196 -0.292228
4 0.0558515 -0.00996393 -0.337842
4 0.0558515 0.00996393 -0.330753
4 0.040595 0.04 -0.272849
4 0.040595 -0.04 -0.30418
4 0.0488701 -0.0298918 -0.317629
4 0.0488701 0.0298918 -0.293383
4 0.0577851 0 -0.337519
4 0.054221 -0.02 -0.329079
4 0.054221 0.02 -0.314578
4 0.0293856 0.0498196 -0.259354
4 0.0293856 -0.0498196 -0.293746
4 0.0439092 0.04 -0.276618
4 0.0439092 -0.04 -0.307086
4 0.0324873 0.0498196 -0.260571
4 0.0324873 -0.0498196 -0.295484
4 0 0.06 -0.260018
4 0 -0.06 -0.286168
4 0.00256965 0.06 -0.260079
4 0.00256965 -0.06 -0.286088
4 0.00518642 0.06 -0.260096
4 0.00518642 -0.06 -0.286054
4 0.0523291 -0.0298918 -0.321766
4 0.0523291 0.0298918 -0.298945
4 0.0594386 -0.00996393 -0.34416
4 0.0594386 0.00996393 -0.337225
4 0.00785119 0.06 -0.260018
4 0.00785119 -0.06 -0.2862
4 0.0105648 0.06 -0.259981
4 0.0105648 -0.06 -0.286455
4 0.0577851 -0.02 -0.334344
4 0.0577851 0.02 -0.320532
4 0.0356458 0.0498196 -0.262118
4 0.0356458 -0.0498196 -0.297395
4 0.0614146 0 -0.343712
4 0.0133283 0.06 -0.260031
4 0.0133283 -0.06 -0.28684
4 0.0472842 0.04 -0.280785
4 0.0472842 -0.04 -0.310106
4 0.0161424 0.06 -0.260177
4 0.0161424 -0.06 -0.287382
4 0.0190081 0.06 -0.260406
4 0.0190081 -0.06 -0.288096
4 0.0388623 0.0498196 -0.264048
4 0.0388623 -0.0498196 -0.299427
4 0.0558515 -0.0298918 -0.325945
4 0.0558515 0.0298918 -0.304323
4 0.0630915 -0.00996393 -0.350154
4 0.0630915 0.00996393 -0.343139
4 0.0219263 0.06 -0.260705
4 0.0219263 -0.06 -0.288972
4 0.0614146 -0.02 -0.339445
4 0.0614146 0.02 -0.326029
4 0.0507211 0.04 -0.285204
4 0.0507211 -0.04 -0.313199
4 0.0248981 0.06 -0.261083
4 0.0248981 -0.06 -0.289985
4 0.0651106 0 -0.349405
4 0.0421378 0.0498196 -0.266403
4 0.0421378 -0.0498196 -0.301547
4 0.0279244 0.06 -0.261565
4 0.0279244 -0.06 -0.291129
4 0.0594386 -0.0298918 -0.330093
4 0.0594386 0.0298918 -0.309306
4 0.054221 0.04 -0.289723
4 0.054221 -0.04 -0.316307
4 0.0454733 0.0498196 -0.269194
4 0.0454733 -0.0498196 -0.303726
4 0.0310063 0.06 -0.2622
4 0.0310063 -0.06 -0.292408
4 0.0668113 -0.00996393 -0.35566
4 0.0668113 0.00996393 -0.348409
4 0.0651106 -0.02 -0.344269
4 0.0651106 0.02 -0.330997
4 0.0688745 0 -0.354496
4 0.0341446 0.06 -0.263032
4 0.0341446 -0.06 -0.293814
4 0.00128135 0.0697475 -0.263997
4 0.00128135 -0.0697475 -0.285773
4 0.0488701 0.0498196 -0.272365
4 0.0488701 -0.0498196 -0.305924
4 0.0630915 -0.0298918 -0.334111
4 0.0630915 0.0298918 -0.313805
4 0.00386754 0.0697475 -0.264066
4 0.00386754 -0.0697475 -0.285671
4 0.00650117 0.0697475 -0.264016
4 0.00650117 -0.0697475 -0.285705
4 0.0577851 0.04 -0.294169
4 0.0577851 -0.04 -0.319369
4 0.00918309 0.0697475 -0.263953
4 0.00918309 -0.0697475 -0.285801
4 0.0373405 0.06 -0.264084
4 0.0373405 -0.06 -0.295314
4 0.0119142 0.0697475 -0.263915
4 0.0119142 -0.0697475 -0.285965
4 0.0146955 0.0697475 -0.263901
4 0.0146955 -0.0697475 -0.286223
4 0.0705994 -0.00996393 -0.360524
4 0.0705994 0.00996393 -0.35304
4 0.0688745 -0.02 -0.348701
4 0.0688745 0.02 -0.335441
4 0.0175277 0.0697475 -0.2639
4 0.0175277 -0.0697475 -0.286605
4 0.0523291 0.0498196 -0.275821
4 0.0523291 -0.0498196 -0.308088
4 0.040595 0.06 -0.265385
4 0.040595 -0.06 -0.296868
4 0.0204118 0.0697475 -0.26391
4 0.0204118 -0.0697475 -0.287134
4 0.0727073 0 -0.35895
4 0.0668113 -0.0298918 -0.337949
4 0.0668113 0.0298918 -0.317872
4 0.0614146 0.04 -0.298381
4 0.0614146 -0.04 -0.322333
4 0.0233489 0.0697475 -0.263948
4 0.0233489 -0.0697475 -0.287854
4 0.0439092 0.06 -0.266958
4 0.0439092 -0.06 -0.298436
4 0.0263398 0.0697475 -0.264034
4 0.0263398 -0.0697475 -0.288731
4 0.0558515 0.0498196 -0.279496
4 0.0558515 -0.0498196 -0.310166
4 0.0744569 -0.00996393 -0.364698
4 0.0744569 0.00996393 -0.357104
4 0.0727073 -0.02 -0.352641
4 0.0727073 0.02 -0.339378
4 0.0293856 0.0697475 -0.264177
4 0.0293856 -0.0697475 -0.289668
4 0.0472842 0.06 -0.268814
4 0.0472842 -0.06 -0.299978
4 0.0651106 0.04 -0.302323
4 0.0651106 -0.04 -0.325154
4 0.0766105 0 -0.362735
4 0.0705994 -0.0298918 -0.341525
4 0.0705994 0.0298918 -0.321575
4 0.0324873 0.0697475 -0.26443
4 0.0324873 -0.0697475 -0.290661
4 0.0594386 0.0498196 -0.283209
4 0.0594386 -0.0498196 -0.312132
4 0.0356458 0.0697475 -0.264776
4 0.0356458 -0.0697475 -0.29172
4 0.0507211 0.06 -0.270932
4 0.0507211 -0.06 -0.301446
4 0.0783853 -0.00996393 -0.36811
4 0.0783853 0.00996393 -0.360537
4 0.0766105 -0.02 -0.356009
4 0.0766105 0.02 -0.342819
4 0.0688745 -0.04 -0.327786
4 0.0688745 0.04 -0.306003
4 0.0388623 0.0697475 -0.265207
4 0.0388623 -0.0697475 -0.292806
4 0 0.08 -0.269745
4 0 -0.08 -0.28417
4 0.00256965 0.08 -0.269774
4 0.00256965 -0.08 -0.284135
4 0.00518642 0.08 -0.269801
4 0.00518642 -0.08 -0.2841
4 0.0744569 -0.0298918 -0.344719
4 0.0744569 0.0298918 -0.324847
4 0.00785119 0.08 -0.269795
4 0.00785119 -0.08 -0.284126
4 0.0630915 0.0498196 -0.286815
4 0.0630915 -0.0498196 -0.313974
4 0.0805853 0 -0.365787
4 0.0105648 0.08 -0.269804
4 0.0105648 -0.08 -0.284193
4 0.054221 0.06 -0.273278
4 0.054221 -0.06 -0.302796
4 0.0133283 0.08 -0.269837
4 0.0133283 -0.08 -0.284314
4 0.0421378 0.0697475 -0.265739
4 0.0421378 -0.0697475 -0.293872
4 0.0161424 0.08 -0.269897
4 0.0161424 -0.08 -0.28451
4 0.0190081 0.08 -0.26998
4 0.0190081 -0.08 -0.284807
4 0.0219263 0.08 -0.270087
4 0.0219263 -0.08 -0.28524
4 0.0727073 -0.04 -0.330155
4 0.0727073 0.04 -0.309402
4 0.0823856 -0.00996393 -0.370753
4 0.0823856 0.00996393 -0.363219
4 0.0805853 -0.02 -0.358781
4 0.0805853 0.02 -0.345769
4 0.0454733 0.0697475 -0.266407
4 0.0454733 -0.0697475 -0.294874
4 0.0577851 0.06 -0.275784
4 0.0577851 -0.06 -0.303995
4 0.0668113 -0.0498196 -0.315676
4 0.0668113 0.0498196 -0.290359
4 0.0248981 0.08 -0.270216
4 0.0248981 -0.08 -0.285828
4 0.0783853 -0.0298918 -0.347456
4 0.0783853 0.0298918 -0.327789
4 0.0846329 0 -0.368112
4 0.0279244 0.08 -0.270367
4 0.0279244 -0.08 -0.286538
4 0.0488701 0.0697475 -0.267253
4 0.0488701 -0.0697475 -0.295759
4 0.0310063 0.08 -0.270547
4 0.0310063 -0.08 -0.287326
4 0.0614146 0.06 -0.278352
4 0.0614146 -0.06 -0.305024
4 0.0705994 -0.0498196 -0.317189
4 0.0705994 0.0498196 -0.293729
4 0.0766105 -0.04 -0.332205
4 0.0766105 0.04 -0.312537
4 0.0846329 -0.02 -0.360975
4 0.0846329 0.02 -0.348198
4 0.0341446 0.08 -0.270772
4 0.0341446 -0.08 -0.288167
4 0.0864593 -0.00996393 -0.372678
4 0.0864593 0.00996393 -0.36525
4 0.0523291 0.0697475 -0.268304
4 0.0523291 -0.0697475 -0.296479
4 0.0823856 -0.0298918 -0.349788
4 0.0823856 0.0298918 -0.330492
4 0.0373405 0.08 -0.271052
4 0.0373405 -0.08 -0.289019
4 0.0651106 0.06 -0.280955
4 0.0651106 -0.06 -0.305872
4 0.0887548 0 -0.369711
4 0.0558515 0.0697475 -0.269559
4 0.0558515 -0.0697475 -0.297005
4 0.0744569 -0.0498196 -0.31848
4 0.0744569 0.0498196 -0.29697
4 0.00128135 0.0896753 -0.275388
4 0.00128135 -0.0896753 -0.282467
4 0.040595 0.08 -0.271382
4 0.040595 -0.08 -0.289821
4 0.00386754 0.0896753 -0.27544
4 0.00386754 -0.0896753 -0.28242
4 0.00650117 0.0896753 -0.275473
4 0.00650117 -0.0896753 -0.282396
4 0.0805853 -0.04 -0.333937
4 0.0805853 0.04 -0.315437
4 0.00918309 0.0896753 -0.275529
4 0.00918309 -0.0896753 -0.282391
4 0.0119142 0.0896753 -0.275606
4 0.0119142 -0.0896753 -0.282409
4 0.0146955 0.0896753 -0.275715
4 0.0146955 -0.0896753 -0.28246
4 0.0887548 0.02 -0.350034
4 0.0887548 -0.02 -0.362577
4 0.0906078 -0.00996393 -0.373804
4 0.0906078 0.00996393 -0.366549
4 0.0439092 0.08 -0.271759
4 0.0439092 -0.08 -0.290509
4 0.0688745 0.06 -0.283611
4 0.0688745 -0.06 -0.306537
4 0.0175277 0.0896753 -0.275863
4 0.0175277 -0.0896753 -0.282564
4 0.0864593 -0.0298918 -0.351686
4 0.0864593 0.0298918 -0.332762
4 0.0594386 0.0697475 -0.270989
4 0.0594386 -0.0697475 -0.297317
4 0.0204118 0.0896753 -0.276046
4 0.0204118 -0.0896753 -0.282757
4 0.0233489 0.0896753 -0.276249
4 0.0233489 -0.0896753 -0.283079
4 0.0783853 -0.0498196 -0.319543
4 0.0783853 0.0498196 -0.30005
4 0.0472842 0.08 -0.272192
4 0.0472842 -0.08 -0.291028
4 0.0929523 0 -0.370498
4 0.0263398 0.0896753 -0.276449
4 0.0263398 -0.0896753 -0.283551
4 0.0846329 0.04 -0.318043
4 0.0846329 -0.04 -0.335356
4 0.0630915 0.0697475 -0.272559
4 0.0630915 -0.0697475 -0.297398
4 0.0727073 0.06 -0.286315
4 0.0727073 -0.06 -0.307034
4 0.0293856 0.0896754 -0.276636
4 0.0293856 -0.0896754 -0.284147
4 0.0507211 0.08 -0.272694
4 0.0507211 -0.08 -0.291333
4 0.0929523 0.02 -0.351162
4 0.0929523 -0.02 -0.363513
4 0.0948323 0.00996393 -0.366985
4 0.0948323 -0.00996393 -0.374074
4 0.0324873 0.0896753 -0.27679
4 0.0324873 -0.0896753 -0.284821
4 0.0906078 -0.0298918 -0.353143
4 0.0906078 0.0298918 -0.334477
4 0.0823856 -0.0498196 -0.320421
4 0.0823856 0.0498196 -0.302919
4 0.0356458 0.0896753 -0.276963
4 0.0356458 -0.0896753 -0.285512
4 0.0668113 0.0697475 -0.274299
4 0.0668113 -0.0697475 -0.297236
4 0.054221 0.08 -0.27328
4 0.054221 -0.08 -0.291396
4 0.0972268 0 -0.370396
4 0.0766105 0.06 -0.289031
4 0.0766105 -0.06 -0.307363
4 0.0887548 0.04 -0.320234
4 0.0887548 -0.04 -0.336451
4 0.0388623 0.0896753 -0.277163
4 0.0388623 -0.0896753 -0.286144
4 0.0577851 0.08 -0.273955
4 0.0577851 -0.08 -0.291207
4 0.0421378 0.0896753 -0.277354
4 0.0421378 -0.0896753 -0.286631
4 0.0705994 0.0697475 -0.27632
4 0.0705994 -0.0697475 -0.29691
4 0.0972268 0.02 -0.351475
4 0.0972268 -0.02 -0.363712
4 0.0948323 -0.0298918 -0.354019
4 0.0948323 0.0298918 -0.335506
4 0.0991345 -0.00996393 -0.373477
4 0.0991345 0.00996393 -0.366452
4 0.0864593 0.0498196 -0.305495
4 0.0864593 -0.0498196 -0.321051
4 0 0.1 -0.279059
4 0 -0.1 -0.283064
4 0.00256965 0.1 -0.279085
4 0.00256965 -0.1 -0.283029
4 0.00518642 0.1 -0.279123
4 0.00518642 -0.1 -0.282983
4 0.00785119 0.1 -0.279156
4 0.00785119 -0.1 -0.282981
4 0.0805853 0.06 -0.291694
4 0.0805853 -0.06 -0.307535
4 0.0454733 0.0896753 -0.277508
4 0.0454733 -0.0896753 -0.286896
4 0.0105648 0.1 -0.279207
4 0.0105648 -0.1 -0.283014
4 0.0614146 0.08 -0.274731
4 0.0614146 -0.08 -0.290774
4 0.0133283 0.1 -0.279277
4 0.0133283 -0.1 -0.283084
4 0.0929523 0.04 -0.321891
4 0.0929523 -0.04 -0.337217
4 0.0161424 0.1 -0.279374
4 0.0161424 -0.1 -0.283197
4 0.10158 0 -0.369344
4 0.0190081 0.1 -0.279503
4 0.0190081 -0.1 -0.283369
4 0.0744569 0.0697475 -0.278558
4 0.0744569 -0.0697475 -0.296482
4 0.0488701 0.0896753 -0.277613
4 0.0488701 -0.0896753 -0.286888
4 0.0219263 0.1 -0.279663
4 0.0219263 -0.1 -0.283616
4 0.0248981 0.1 -0.279849
4 0.0248981 -0.1 -0.283952
4 0.0651106 0.08 -0.275645
4 0.0651106 -0.08 -0.290114
4 0.0906078 0.0498196 -0.307691
4 0.0906078 -0.0498196 -0.321485
4 0.10158 0.02 -0.350906
4 0.10158 -0.02 -0.363113
4 0.0991345 0.0298918 -0.335802
4 0.0991345 -0.0298918 -0.354234
4 0.0846329 0.06 -0.294237
4 0.0846329 -0.06 -0.307563
4 0.0279244 0.1 -0.280055
4 0.0279244 -0.1 -0.28438
4 0.0523291 0.0896753 -0.277674
4 0.0523291 -0.0896753 -0.286578
4 0.103515 0.00996393 -0.364861
4 0.103515 -0.00996393 -0.371977
4 0.0310063 0.1 -0.280272
4 0.0310063 -0.1 -0.284876
4 0.0783853 0.0697475 -0.28092
4 0.0783853 -0.0697475 -0.29593
4 0.0972268 0.04 -0.322915
4 0.0972268 -0.04 -0.337586
4 0.0688745 0.08 -0.276787
4 0.0688745 -0.08 -0.289273
4 0.0558515 0.0896753 -0.277708
4 0.0558515 -0.0896753 -0.285955
4 0.0341446 0.1 -0.2805
4 0.0341446 -0.1 -0.285387
4 0.106012 0 -0.367287
4 0.0373405 0.1 -0.28075
4 0.0373405 -0.1 -0.285829
4 0.0948323 0.0498196 -0.309369
4 0.0948323 -0.0498196 -0.321788
4 0.0887548 0.06 -0.296608
4 0.0887548 -0.06 -0.307436
4 0.0594386 0.0896753 -0.277756
4 0.0594386 -0.0896753 -0.285042
4 0.103515 -0.0298918 -0.353665
4 0.103515 0.0298918 -0.335342
4 0.106012 -0.02 -0.361636
4 0.106012 0.02 -0.349432
4 0.040595 0.1 -0.281018
4 0.040595 -0.1 -0.286108
4 0.0823856 0.0697475 -0.283307
4 0.0823856 -0.0697475 -0.295285
4 0.0727073 0.08 -0.278216
4 0.0727073 -0.08 -0.288298
4 0.107976 -0.00996393 -0.369455
4 0.107976 0.00996393 -0.36222
4 0.10158 0.04 -0.323259
4 0.10158 -0.04 -0.337443
4 0.0439092 0.1 -0.281285
4 0.0439092 -0.1 -0.286128
4 0.00128135 0.109603 -0.282729
4 0.00128135 -0.109603 -0.283552
4 0.0630915 0.0896753 -0.277886
4 0.0630915 -0.0896753 -0.283881
4 0.00386754 0.109603 -0.282787
4 0.00386754 -0.109603 -0.283449
4 0.00650117 0.109603 -0.282797
4 0.00650117 -0.109603 -0.283437
4 0.00918309 0.109603 -0.282827
4 0.00918309 -0.109603 -0.283471
4 0.0119142 0.109603 -0.282869
4 0.0119142 -0.109603 -0.283559
4 0.110526 0 -0.364203
4 0.0146955 0.109603 -0.282926
4 0.0146955 -0.109603 -0.283691
4 0.0472842 0.1 -0.281532
4 0.0472842 -0.1 -0.285803
4 0.0929523 0.06 -0.298746
4 0.0929523 -0.06 -0.30716
4 0.0766105 0.08 -0.279916
4 0.0766105 -0.08 -0.28721
4 0.0991345 0.0498196 -0.310451
4 0.0991345 -0.0498196 -0.321854
4 0.0175277 0.109603 -0.283006
4 0.0175277 -0.109603 -0.283869
4 0.0864593 0.0697475 -0.285679
4 0.0864593 -0.0697475 -0.294581
4 0.0204118 0.109603 -0.283117
4 0.0204118 -0.109603 -0.284098
4 0.0668113 0.0896754 -0.278182
4 0.0668113 -0.0896754 -0.282532
4 0.107976 0.0298918 -0.334133
4 0.107976 -0.0298918 -0.352267
4 0.0233489 0.109603 -0.28327
4 0.0233489 -0.109603 -0.284363
4 0.0507211 0.1 -0.281754
4 0.0507211 -0.1 -0.28508
4 0.110526 -0.02 -0.35922
4 0.110526 0.02 -0.347078
4 0.0263398 0.109603 -0.283465
4 0.0263398 -0.109603 -0.284677
4 0.112519 -0.00996393 -0.365895
4 0.112519 0.00996393 -0.358564
4 0.106012 -0.04 -0.336692
4 0.106012 0.04 -0.322934
4 0.0293856 0.109603 -0.283713
4 0.0293856 -0.109603 -0.285044
4 0.0805853 0.08 -0.281818
4 0.0805853 -0.08 -0.286046
4 0.054221 0.1 -0.281957
4 0.054221 -0.1 -0.283952
4 0.0705994 0.0896753 -0.278766
4 0.0705994 -0.0896753 -0.281047
4 0.0972268 0.06 -0.300583
4 0.0972268 -0.06 -0.30676
4 0.0324873 0.109603 -0.283998
4 0.0324873 -0.109603 -0.285434
4 0.0906078 0.0697475 -0.288033
4 0.0906078 -0.0697475 -0.293751
4 0.103515 0.0498196 -0.310908
4 0.103515 -0.0498196 -0.321534
4 0.115123 0 -0.360128
4 0.0356458 0.109603 -0.284301
4 0.0356458 -0.109603 -0.285768
4 0.0577851 0.1 -0.282164
4 0.0577851 -0.1 -0.282455
4 0.0388623 0.109603 -0.284629
4 0.0388623 -0.109603 -0.285929
4 0.112519 -0.0298918 -0.349964
4 0.112519 0.0298918 -0.332228
4 0.0846329 0.08 -0.283838
4 0.0846329 -0.08 -0.284862
4 0.0744569 0.0896753 -0.279705
4 0.0744569 -0.0896753 -0.279423
4 0.115123 -0.02 -0.355852
4 0.115123 0.02 -0.34391
4 0.0614146 0.1 -0.282382
4 0.0614146 -0.1 -0.280663
4 0.0421378 0.109603 -0.284988
4 0.0421378 -0.109603 -0.285815
4 0.110526 -0.04 -0.335274
4 0.110526 0.04 -0.32201
4 0.117146 -0.00996393 -0.361315
4 0.117146 0.00996393 -0.354004
4 0.0948323 0.0697475 -0.290353
4 0.0948323 -0.0697475 -0.292757
4 0.10158 0.06 -0.302059
4 0.10158 -0.06 -0.306234
4 0.0454733 0.109603 -0.285357
4 0.0454733 -0.109603 -0.285313
4 0.107976 -0.0498196 -0.320745
4 0.107976 0.0498196 -0.310826
4 0.0783853 0.0896753 -0.28101
4 0.0783853 -0.0896753 -0.277705
4 0.0651106 0.1 -0.282633
4 0.0651106 -0.1 -0.278667
4 0.0887548 0.08 -0.285914
4 0.0887548 -0.08 -0.283673
4 0.119804 -3.70074e-17 -0.355156
4 0 0.12 -0.286099
4 0 -0.12 -0.283929
4 0.0488701 0.109603 -0.285724
4 0.0488701 -0.109603 -0.284316
4 0.00256965 0.12 -0.286115
4 0.00256965 -0.12 -0.283729
4 0.00518642 0.12 -0.286139
4 0.00518642 -0.12 -0.283631
4 0.00785119 0.12 -0.286156
4 0.00785119 -0.12 -0.28387
4 0.0105648 0.12 -0.286181
4 0.0105648 -0.12 -0.28419
4 0.0133283 0.12 -0.286213
4 0.0133283 -0.12 -0.284585
4 0.117146 -0.0298918 -0.346784
4 0.117146 0.0298918 -0.32968
4 0.0161424 0.12 -0.286253
4 0.0161424 -0.12 -0.285044
4 0.0991345 0.0697475 -0.292592
4 0.0991345 -0.0697475 -0.29178
4 0.0688745 0.1 -0.282973
4 0.0688745 -0.1 -0.276571
4 0.0523291 0.109603 -0.286086
4 0.0523291 -0.109603 -0.282798
4 0.119804 -0.02 -0.351541
4 0.119804 0.02 -0.340044
4 0.0190081 0.12 -0.286311
4 0.0190081 -0.12 -0.285569
4 0.0823856 0.0896753 -0.282587
4 0.0823856 -0.0896753 -0.275992
4 0.106012 -0.06 -0.305531
4 0.106012 0.06 -0.303142
4 0.115123 -0.04 -0.333168
4 0.115123 0.04 -0.320561
4 0.0219263 0.12 -0.286401
4 0.0219263 -0.12 -0.286135
4 0.121857 -0.00996393 -0.355772
4 0.121857 0.00996393 -0.34873
4 0.0248981 0.12 -0.286532
4 0.0248981 -0.12 -0.2867
4 0.0929523 0.08 -0.288001
4 0.0929523 -0.08 -0.282467
4 0.0558515 0.109603 -0.286452
4 0.0558515 -0.109603 -0.2808
4 0.112519 -0.0498196 -0.319454
4 0.112519 0.0498196 -0.310331
4 0.0279244 0.12 -0.286707
4 0.0279244 -0.12 -0.287229
4 0.0727073 0.1 -0.283456
4 0.0727073 -0.1 -0.274471
4 0.0310063 0.12 -0.286921
4 0.0310063 -0.12 -0.287683
4 0.0864593 0.0896753 -0.284338
4 0.0864593 -0.0896753 -0.274341
4 0.124571 0 -0.349448
4 0.0594386 0.109603 -0.286836
4 0.0594386 -0.109603 -0.278414
4 0.0341446 0.12 -0.287158
4 0.0341446 -0.12 -0.287997
4 0.103515 -0.0697475 -0.290897
4 0.103515 0.0697475 -0.294672
4 0.121857 -0.0298918 -0.342663
4 0.121857 0.0298918 -0.326605
4 0.0373405 0.12 -0.287407
4 0.0373405 -0.12 -0.288081
4 0.110526 -0.06 -0.304611
4 0.110526 0.06 -0.303836
4 0.0972268 0.08 -0.290066
4 0.0972268 -0.08 -0.281283
4 0.0766105 0.1 -0.284112
4 0.0766105 -0.1 -0.272436
4 0.124571 -0.02 -0.346318
4 0.124571 0.02 -0.335673
4 0.119804 -0.04 -0.33036
4 0.119804 0.04 -0.318632
4 0.0630915 0.109603 -0.28716
4 0.0630915 -0.109603 -0.275765
4 0.040595 0.12 -0.287664
4 0.040595 -0.12 -0.287849
4 0.126655 -0.00996393 -0.349431
4 0.126655 0.00996393 -0.342987
4 0.117146 -0.0498196 -0.317652
4 0.117146 0.0498196 -0.309474
4 0.0906078 0.0896753 -0.286162
4 0.0906078 -0.0896753 -0.272781
4 0.0439092 0.12 -0.287922
4 0.0439092 -0.12 -0.287231
4 0.0668113 0.109603 -0.287437
4 0.0668113 -0.109603 -0.272992
4 0.0805853 0.1 -0.28494
4 0.0805853 -0.1 -0.270515
4 0.107976 0.0697475 -0.296486
4 0.107976 -0.0697475 -0.290043
4 0.0472842 0.12 -0.288163
4 0.0472842 -0.12 -0.286171
4 0.10158 0.08 -0.292065
4 0.10158 -0.08 -0.280197
4 0.129426 0 -0.343298
4 0.00128135 0.129531 -0.289494
4 0.00128135 -0.129531 -0.284273
4 0.00386754 0.129531 -0.289511
4 0.00386754 -0.129531 -0.283586
4 0.00650117 0.129531 -0.289521
4 0.00650117 -0.129531 -0.283999
4 0.115123 -0.06 -0.303478
4 0.115123 0.06 -0.304156
4 0.00918309 0.129531 -0.289537
4 0.00918309 -0.129531 -0.284514
4 0.0119142 0.129531 -0.289553
4 0.0119142 -0.129531 -0.285155
4 0.126655 -0.0298918 -0.337574
4 0.126655 0.0298918 -0.323221
4 0.0507211 0.12 -0.288373
4 0.0507211 -0.12 -0.284645
4 0.0146955 0.129531 -0.289565
4 0.0146955 -0.129531 -0.285879
4 0.0705994 0.109603 -0.287674
4 0.0705994 -0.109603 -0.270264
4 0.0948323 0.0896753 -0.288009
4 0.0948323 -0.0896753 -0.271328
4 0.0175277 0.129531 -0.289578
4 0.0175277 -0.129531 -0.286687
4 0.124571 -0.04 -0.326826
4 0.124571 0.04 -0.316297
4 0.129426 -0.02 -0.340396
4 0.129426 0.02 -0.331067
4 0.0846329 0.1 -0.285913
4 0.0846329 -0.1 -0.268747
4 0.0204118 0.129531 -0.289611
4 0.0204118 -0.129531 -0.28757
4 0.0233489 0.129531 -0.28968
4 0.0233489 -0.129531 -0.288453
4 0.121857 -0.0498196 -0.315336
4 0.121857 0.0498196 -0.308219
4 0.054221 0.12 -0.288557
4 0.054221 -0.12 -0.282674
4 0.131541 -0.00996393 -0.34266
4 0.131541 0.00996393 -0.337183
4 0.0263398 -0.129531 -0.28925
4 0.0263398 0.129531 -0.289794
4 0.112519 -0.0697475 -0.289225
4 0.112519 0.0697475 -0.297952
4 0.0744569 0.109603 -0.287887
4 0.0744569 -0.109603 -0.267742
4 0.106012 -0.08 -0.27927
4 0.106012 0.08 -0.293933
4 0.0293856 0.129531 -0.289945
4 0.0293856 -0.129531 -0.289896
4 0.0577851 0.12 -0.288734
4 0.0577851 -0.12 -0.280337
4 0.0324873 0.129531 -0.290124
4 0.0324873 -0.129531 -0.290323
4 0.0991345 0.0896753 -0.28985
4 0.0991345 -0.0896753 -0.269988
4 0.0887548 0.1 -0.287008
4 0.0887548 -0.1 -0.267165
4 0.119804 -0.06 -0.302164
4 0.119804 0.06 -0.304091
4 0.0356458 0.129531 -0.290311
4 0.0356458 -0.129531 -0.290455
4 0.134369 0 -0.337178
4 0.0783853 0.109603 -0.288102
4 0.0783853 -0.109603 -0.26549
4 0.0614146 0.12 -0.288906
4 0.0614146 -0.12 -0.277761
4 0.131541 -0.0298918 -0.331879
4 0.131541 0.0298918 -0.319751
4 0.0388623 0.129531 -0.290495
4 0.0388623 -0.129531 -0.290207
4 0.129426 -0.04 -0.322764
4 0.129426 0.04 -0.31369
4 0.134369 -0.02 -0.334332
4 0.134369 0.02 -0.326557
4 0.126655 -0.0498196 -0.312507
4 0.126655 0.0498196 -0.306576
4 0.0421378 0.129531 -0.290665
4 0.0421378 -0.129531 -0.289528
4 0.117146 -0.0697475 -0.288488
4 0.117146 0.0697475 -0.299036
4 0.110526 -0.08 -0.27861
4 0.110526 0.08 -0.295601
4 0.0651106 0.12 -0.28906
4 0.0651106 -0.12 -0.275096
4 0.0929523 0.1 -0.288209
4 0.0929523 -0.1 -0.265805
4 0.136516 -0.00996393 -0.336128
4 0.136516 0.00996393 -0.331771
4 0.103515 0.0896753 -0.291656
4 0.103515 -0.0896753 -0.268804
4 0.0823856 0.109603 -0.288361
4 0.0823856 -0.109603 -0.263495
4 0.0454733 0.129531 -0.290811
4 0.0454733 -0.129531 -0.288405
4 0.124571 -0.06 -0.300739
4 0.124571 0.06 -0.303625
4 0.0688745 0.12 -0.289201
4 0.0688745 -0.12 -0.272494
4 0.0488701 0.129531 -0.290909
4 0.0488701 -0.129531 -0.286844
4 0.139403 0 -0.331625
4 0.0972268 0.1 -0.289505
4 0.0972268 -0.1 -0.264697
4 0.0864593 0.109603 -0.288709
4 0.0864593 -0.109603 -0.261772
4 0.0523291 0.129531 -0.290945
4 0.0523291 -0.129531 -0.284859
4 0.136516 -0.0298918 -0.326437
4 0.136516 0.0298918 -0.316428
4 0 0.14 -0.291661
4 0 -0.14 -0.279311
4 0.00256965 0.14 -0.29166
4 0.00256965 -0.14 -0.279227
4 0.00518642 0.14 -0.291662
4 0.00518642 -0.14 -0.279339
4 0.115123 -0.08 -0.278368
4 0.115123 0.08 -0.297011
4 0.134369 -0.04 -0.318768
4 0.134369 0.04 -0.310974
4 0.00785119 0.14 -0.291663
4 0.00785119 -0.14 -0.279856
4 0.0727073 0.12 -0.289343
4 0.0727073 -0.12 -0.270095
4 0.107976 -0.0896753 -0.267958
4 0.107976 0.0896753 -0.293384
4 0.0105648 0.14 -0.291663
4 0.0105648 -0.14 -0.280595
4 0.121857 -0.0697475 -0.287935
4 0.121857 0.0697475 -0.299715
4 0.0133283 0.14 -0.291663
4 0.0133283 -0.14 -0.281478
4 0.131541 -0.0498196 -0.309628
4 0.131541 0.0498196 -0.304627
4 0.139403 -0.02 -0.328846
4 0.139403 0.02 -0.322456
4 0.0161424 0.14 -0.291665
4 0.0161424 -0.14 -0.282393
4 0.0558515 0.129531 -0.290949
4 0.0558515 -0.129531 -0.282513
4 0.0190081 0.14 -0.291684
4 0.0190081 -0.14 -0.28327
4 0.0219263 0.14 -0.291742
4 0.0219263 -0.14 -0.284087
4 0.141582 -0.00996393 -0.330518
4 0.141582 0.00996393 -0.327113
4 0.0248981 0.14 -0.291855
4 0.0248981 -0.14 -0.284842
4 0.0906078 0.109603 -0.289202
4 0.0906078 -0.109603 -0.260351
4 0.0766105 0.12 -0.289496
4 0.0766105 -0.12 -0.267998
4 0.0594386 0.129531 -0.290935
4 0.0594386 -0.129531 -0.279923
4 0.10158 0.1 -0.290876
4 0.10158 -0.1 -0.263891
4 0.129426 -0.06 -0.299448
4 0.129426 0.06 -0.302787
4 0.0279244 0.14 -0.292025
4 0.0279244 -0.14 -0.285527
4 0.0310063 0.14 -0.292236
4 0.0310063 -0.14 -0.286111
4 0.112519 -0.0896754 -0.267755
4 0.112519 0.0896754 -0.294985
4 0.119804 -0.08 -0.278648
4 0.119804 0.08 -0.298124
4 0.0630915 0.129531 -0.290955
4 0.0630915 -0.129531 -0.277259
4 0.0341446 0.14 -0.292473
4 0.0341446 -0.14 -0.286548
4 0.14453 -3.70074e-17 -0.326982
4 0.0805853 0.12 -0.289681
4 0.0805853 -0.12 -0.266242
4 0.126655 -0.0697475 -0.287751
4 0.126655 0.0697475 -0.29999
4 0.141582 -0.0298918 -0.321954
4 0.141582 0.0298918 -0.313456
4 0.0373405 0.14 -0.292718
4 0.0373405 -0.14 -0.28679
4 0.0948323 0.109603 -0.289869
4 0.0948323 -0.109603 -0.259295
4 0.139403 -0.04 -0.315476
4 0.139403 0.04 -0.308317
4 0.136516 -0.0498196 -0.307432
4 0.136516 0.0498196 -0.302493
4 0.106012 -0.1 -0.26352
4 0.106012 0.1 -0.292295
4 0.0668113 0.129531 -0.290976
4 0.0668113 -0.129531 -0.27469
4 0.040595 0.14 -0.292961
4 0.040595 -0.14 -0.286791
4 0.14453 -0.02 -0.324394
4 0.14453 0.02 -0.318956
4 0.0439092 0.14 -0.29319
4 0.0439092 -0.14 -0.286502
4 0.0846329 0.12 -0.289919
4 0.0846329 -0.12 -0.26485
4 0.146742 -0.00996393 -0.326033
4 0.146742 0.00996393 -0.323335
4 0.134369 -0.06 -0.298739
4 0.134369 0.06 -0.301629
4 0.0705994 0.129531 -0.291028
4 0.0705994 -0.129531 -0.272347
4 0.117146 -0.0896753 -0.268428
4 0.117146 0.0896753 -0.296401
4 0.0472842 0.14 -0.29339
4 0.0472842 -0.14 -0.285883
4 0.0991345 0.109603 -0.290711
4 0.0991345 -0.109603 -0.258638
4 0.124571 -0.08 -0.279521
4 0.124571 0.08 -0.298927
4 0.131541 0.0697475 -0.299875
4 0.131541 -0.0697475 -0.288283
4 0.0507211 0.14 -0.293547
4 0.0507211 -0.14 -0.284928
4 0.110526 -0.1 -0.263767
4 0.110526 0.1 -0.293726
4 0.0887548 0.12 -0.290239
4 0.0887548 -0.12 -0.263849
4 0.0744569 0.129531 -0.291113
4 0.0744569 -0.129531 -0.270336
4 0.00128135 0.149459 -0.293865
4 0.00128135 -0.149459 -0.27445
4 0.00386754 0.149459 -0.293853
4 0.00386754 -0.149459 -0.274783
4 0.00650117 0.149459 -0.293846
4 0.00650117 -0.149459 -0.275163
4 0.00918309 0.149459 -0.293832
4 0.00918309 -0.149459 -0.275915
4 0.14975 0 -0.323327
4 0.146742 -0.0298918 -0.318653
4 0.146742 0.0298918 -0.310911
4 0.0119142 0.149459 -0.293815
4 0.0119142 -0.149459 -0.276951
4 0.14453 -0.04 -0.31317
4 0.14453 0.04 -0.305842
4 0.141582 -0.0498196 -0.306199
4 0.141582 0.0498196 -0.300284
4 0.054221 0.14 -0.293664
4 0.054221 -0.14 -0.283673
4 0.0146955 0.149459 -0.293801
4 0.0146955 -0.149459 -0.278067
4 0.0175277 0.149459 -0.293799
4 0.0175277 -0.149459 -0.279073
4 0.103515 -0.109603 -0.258502
4 0.103515 0.109603 -0.29171
4 0.0204118 0.149459 -0.293833
4 0.0204118 -0.149459 -0.279894
4 0.14975 -0.02 -0.321011
4 0.14975 0.02 -0.316109
4 0.0233489 0.149459 -0.293933