# p  POINT_DATA 90431
# x  y  z  p
5 0 0 -0.00828481
5 0.00256965 0 -0.00848169
5 0.00518642 0 -0.00879281
5 0.00785119 0 -0.00915971
5 0.00128482 0.01 -0.00144825
5 0.00128483 -0.01 -0.0151214
5 0.0105648 0 -0.009811
5 0.00387804 0.01 -0.00197118
5 0.00387803 -0.01 -0.015386
5 0.0065188 0.01 -0.00228908
5 0.0065188 -0.01 -0.015525
5 0.0133283 0 -0.0107412
5 0.00920799 0.01 -0.00303579
5 0.00920799 -0.01 -0.0157891
5 0.0119465 0.01 -0.00421363
5 0.0119466 -0.01 -0.0162057
5 0.0161424 0 -0.0119084
5 0.0147353 0.01 -0.005764
5 0.0147353 -0.01 -0.0167819
5 0.0190081 0 -0.0132553
5 0 0.02 0.00976223
5 0 -0.02 -0.0189768
5 0.00256965 0.02 0.00937641
5 0.00256965 -0.02 -0.0191142
5 0.0175753 0.01 -0.00759317
5 0.0175753 -0.01 -0.0174948
5 0.00518642 0.02 0.00879896
5 0.00518642 -0.02 -0.0192814
5 0.00785119 0.02 0.00809857
5 0.00785119 -0.02 -0.0193684
5 0.0219263 0 -0.0147315
5 0.0105648 0.02 0.00679048
5 0.0105648 -0.02 -0.0195215
5 0.0204672 0.01 -0.00962608
5 0.0204672 -0.01 -0.0183073
5 0.0133283 0.02 0.0049555
5 0.0133283 -0.02 -0.0197627
5 0.0248981 0 -0.0162975
5 0.0234122 0.01 -0.0118077
5 0.0234122 -0.01 -0.0191851
5 0.0161424 0.02 0.00271003
5 0.0161424 -0.02 -0.0201018
5 0.0190081 0.02 0.000162579
5 0.0190081 -0.02 -0.0205258
5 0.0279244 0 -0.0179218
5 0.0264112 0.01 -0.014097
5 0.0264112 -0.01 -0.0201005
5 0.0219263 0.02 -0.00260644
5 0.0219263 -0.02 -0.0210095
5 0.00128483 0.03 0.0209727
5 0.00128482 -0.03 -0.0228323
5 0.00387803 0.03 0.0199522
5 0.00387803 -0.03 -0.0231172
5 0.0065188 0.03 0.0195038
5 0.0065188 -0.03 -0.0230972
5 0.0310063 0 -0.0195763
5 0.0294653 0.01 -0.0164577
5 0.0294653 -0.01 -0.0210325
5 0.00920799 0.03 0.0182152
5 0.00920799 -0.03 -0.0230624
5 0.0248981 0.02 -0.00553704
5 0.0248981 -0.02 -0.0215276
5 0.0119466 0.03 0.0161959
5 0.0119465 -0.03 -0.0230289
5 0.0147353 0.03 0.0136034
5 0.0147353 -0.03 -0.0230343
5 0.0325754 0.01 -0.0188399
5 0.0325754 -0.01 -0.0219755
5 0.0341446 0 -0.0212355
5 0.0279244 0.02 -0.00858112
5 0.0279244 -0.02 -0.0220587
5 0.0175753 0.03 0.0105935
5 0.0175753 -0.03 -0.0230964
5 0.0204672 0.03 0.00727559
5 0.0204672 -0.03 -0.0232049
5 0.0310063 0.02 -0.0116868
5 0.0310063 -0.02 -0.0225901
5 0.0357425 0.01 -0.0212037
5 0.0357425 -0.01 -0.0229231
5 0.0373405 0 -0.0228764
5 0.0234122 0.03 0.00373193
5 0.0234122 -0.03 -0.0233408
5 0.0341446 0.02 -0.0148026
5 0.0341446 -0.02 -0.0231143
5 0.0264112 0.03 2.40307e-05
5 0.0264112 -0.03 -0.0234842
5 0 0.04 0.0345195
5 0 -0.04 -0.0264311
5 0.00256965 0.04 0.0338288
5 0.00256965 -0.04 -0.0265988
5 0.0389677 0.01 -0.0235175
5 0.0389678 -0.01 -0.0238616
5 0.00518642 0.04 0.0328797
5 0.00518642 -0.04 -0.02678
5 0.040595 0 -0.0244731
5 0.00785119 0.04 0.0318385
5 0.00785119 -0.04 -0.0268284
5 0.0105648 0.04 0.0298425
5 0.0105648 -0.04 -0.0269193
5 0.0294653 0.03 -0.00379445
5 0.0294653 -0.03 -0.023618
5 0.0133283 0.04 0.0270902
5 0.0133283 -0.04 -0.0270616
5 0.0373405 0.02 -0.017893
5 0.0373405 -0.02 -0.023621
5 0.0161424 0.04 0.0237778
5 0.0161424 -0.04 -0.0272679
5 0.0422521 0.01 -0.0257507
5 0.0422521 -0.01 -0.024763
5 0.0439092 0 -0.0259947
5 0.0325754 0.03 -0.00765602
5 0.0325754 -0.03 -0.0237344
5 0.0190081 0.04 0.020061
5 0.0190081 -0.04 -0.0275348
5 0.040595 0.02 -0.0209305
5 0.040595 -0.02 -0.0241012
5 0.0219263 0.04 0.0160513
5 0.0219263 -0.04 -0.0278457
5 0.0357425 0.03 -0.0115115
5 0.0357426 -0.03 -0.0238241
5 0.0455967 0.01 -0.0278696
5 0.0455967 -0.01 -0.025596
5 0.0248981 0.04 0.011836
5 0.0248981 -0.04 -0.0281843
5 0.0472842 0 -0.02741
5 0.0439092 0.02 -0.0238755
5 0.0439092 -0.02 -0.0245378
5 0.0279244 0.04 0.00748844
5 0.0279244 -0.04 -0.0285379
5 0.0389677 0.03 -0.01534
5 0.0389678 -0.03 -0.0238755
5 0.0490026 0.01 -0.0298398
5 0.0490026 -0.01 -0.0263348
5 0.00128483 0.05 0.0480664
5 0.00128483 -0.05 -0.0300299
5 0.00387803 0.05 0.0463237
5 0.00387803 -0.05 -0.0304157
5 0.0065188 0.05 0.045739
5 0.0065188 -0.05 -0.03049
5 0.0310063 0.04 0.00306521
5 0.0310063 -0.04 -0.0288974
5 0.0507211 0 -0.0286922
5 0.00920799 0.05 0.0438957
5 0.009208 -0.05 -0.030664
5 0.0472842 0.02 -0.0266797
5 0.0472842 -0.02 -0.0249078
5 0.0119466 0.05 0.0410629
5 0.0119465 -0.05 -0.0309219
5 0.0422521 0.03 -0.0191146
5 0.0422521 -0.03 -0.0239049
5 0.0147353 0.05 0.0374982
5 0.0147353 -0.05 -0.0312612
5 0.0341446 0.04 -0.00138748
5 0.0341446 -0.04 -0.0292575
5 0.0175753 0.05 0.0334153
5 0.0175753 -0.05 -0.0316798
5 0.052471 0.01 -0.0316407
5 0.0524711 -0.01 -0.0269539
5 0.0204672 0.05 0.0289591
5 0.0204672 -0.05 -0.0321583
5 0.054221 0 -0.0298214
5 0.0507211 0.02 -0.0293117
5 0.0507211 -0.02 -0.0251888
5 0.0455967 0.03 -0.0227678
5 0.0455967 -0.03 -0.0238873
5 0.0373405 0.04 -0.00582676
5 0.0373405 -0.04 -0.0296129
5 0.0234122 0.05 0.0242379
5 0.0234122 -0.05 -0.0326788
5 0.0264112 0.05 0.0193492
5 0.0264112 -0.05 -0.0332337
5 0.056003 0.01 -0.033255
5 0.056003 -0.01 -0.0274363
5 0.040595 0.04 -0.0102179
5 0.040595 -0.04 -0.0299697
5 0.0490027 0.03 -0.0262423
5 0.0490027 -0.03 -0.023813
5 0.0577851 0 -0.0307845
5 0.054221 0.02 -0.0317545
5 0.054221 -0.02 -0.0253547
5 0.0294654 0.05 0.0143741
5 0.0294653 -0.05 -0.0338158
5 0.0439092 0.04 -0.0145075
5 0.0439092 -0.04 -0.030357
5 0.0325754 0.05 0.00933625
5 0.0325754 -0.05 -0.0344217
5 0 0.06 0.0573221
5 0 -0.06 -0.0339656
5 0.00256965 0.06 0.0564451
5 0.00256965 -0.06 -0.0341245
5 0.00518642 0.06 0.0551963
5 0.00518642 -0.06 -0.0344039
5 0.0595998 0.01 -0.0346732
5 0.0595998 -0.01 -0.0277739
5 0.0524711 0.03 -0.0295246
5 0.0524711 -0.03 -0.0236534
5 0.00785119 0.06 0.053783
5 0.00785119 -0.06 -0.0347704
5 0.0105648 0.06 0.0511898
5 0.0105648 -0.06 -0.0353817
5 0.0577851 0.02 -0.0339946
5 0.0577851 -0.02 -0.0253905
5 0.0614146 0 -0.0315854
5 0.0357426 0.05 0.00428036
5 0.0357425 -0.05 -0.0350499
5 0.0133283 0.06 0.0477388
5 0.0133283 -0.06 -0.0362197
5 0.0472842 0.04 -0.0186366
5 0.0472842 -0.04 -0.0308223
5 0.0161424 0.06 0.0437124
5 0.0161424 -0.06 -0.0372381
5 0.0190081 0.06 0.0393091
5 0.0190081 -0.06 -0.0383903
5 0.0389677 0.05 -0.000736917
5 0.0389677 -0.05 -0.0357021
5 0.056003 0.03 -0.0325983
5 0.056003 -0.03 -0.023375
5 0.0219263 0.06 0.0346632
5 0.0219263 -0.06 -0.0396549
5 0.0632626 0.01 -0.0358941
5 0.0632626 -0.01 -0.0280006
5 0.0614146 0.02 -0.0360263
5 0.0614146 -0.02 -0.0252885
5 0.0507211 0.04 -0.0225898
5 0.0507211 -0.04 -0.0314167
5 0.0248981 0.06 0.0298766
5 0.0248981 -0.06 -0.041001
5 0.0651106 0 -0.0322387
5 0.0422521 0.05 -0.00568099
5 0.0422521 -0.05 -0.0363963
5 0.0279244 0.06 0.0250237
5 0.0279244 -0.06 -0.0424083
5 0.0595998 0.03 -0.0354524
5 0.0595998 -0.03 -0.0229768
5 0.054221 0.04 -0.0263676
5 0.054221 -0.04 -0.032183
5 0.0310063 0.06 0.0201444
5 0.0310063 -0.06 -0.0438963
5 0.0455967 0.05 -0.0104675
5 0.0455967 -0.05 -0.0372395
5 0.0669926 0.01 -0.0369159
5 0.0669926 -0.01 -0.0281442
5 0.0651106 0.02 -0.0378456
5 0.0651106 -0.02 -0.0250575
5 0.0688745 0 -0.0327219
5 0.0341446 0.06 0.0152521
5 0.0341446 -0.06 -0.0455099
5 0.0490026 0.05 -0.0150697
5 0.0490027 -0.05 -0.0383497
5 0.00128483 0.07 0.0665778
5 0.00128483 -0.07 -0.0379012
5 0.0632626 0.03 -0.0380862
5 0.0632626 -0.03 -0.0224027
5 0.00387804 0.07 0.0648123
5 0.00387803 -0.07 -0.0381513
5 0.0577851 0.04 -0.029962
5 0.0577851 -0.04 -0.033146
5 0.0065188 0.07 0.0639102
5 0.0065188 -0.07 -0.0385585
5 0.009208 0.07 0.0615866
5 0.009208 -0.07 -0.0393693
5 0.0373405 0.06 0.0103583
5 0.0373405 -0.06 -0.0473023
5 0.0119466 0.07 0.0582134
5 0.0119465 -0.07 -0.0405717
5 0.0707909 -0.01 -0.0280858
5 0.0707909 0.01 -0.037742
5 0.0147354 0.07 0.0541802
5 0.0147354 -0.07 -0.0421242
5 0.0688745 -0.02 -0.0247277
5 0.0688745 0.02 -0.0394458
5 0.0175753 0.07 0.0497553
5 0.0175753 -0.07 -0.0438872
5 0.040595 0.06 0.00548284
5 0.040595 -0.06 -0.0493377
5 0.052471 0.05 -0.0195235
5 0.052471 -0.05 -0.0398507
5 0.0727073 0 -0.0330061
5 0.0204672 0.07 0.0451058
5 0.0204672 -0.07 -0.045836
5 0.0614146 0.04 -0.0333618
5 0.0614146 -0.04 -0.0342787
5 0.0669925 0.03 -0.0404865
5 0.0669925 -0.03 -0.0216823
5 0.0234122 0.07 0.0403492
5 0.0234122 -0.07 -0.0479467
5 0.0439092 0.06 0.000635487
5 0.0439092 -0.06 -0.0517199
5 0.0264112 0.07 0.0355691
5 0.0264112 -0.07 -0.0501451
5 0.056003 0.05 -0.0238249
5 0.056003 -0.05 -0.041853
5 0.0746589 -0.01 -0.0278151
5 0.0746589 0.01 -0.0383816
5 0.0727073 -0.02 -0.0243292
5 0.0727073 0.02 -0.0408292
5 0.0294653 0.07 0.0308014
5 0.0294654 -0.07 -0.0524389
5 0.0472842 0.06 -0.00418238
5 0.0472842 -0.06 -0.0545722
5 0.0651106 -0.04 -0.0355029
5 0.0651106 0.04 -0.0365403
5 0.0766105 0 -0.0331131
5 0.0707909 -0.03 -0.0209985
5 0.0707909 0.03 -0.042639
5 0.0325754 0.07 0.0260649
5 0.0325754 -0.07 -0.0549093
5 0.0595998 0.05 -0.0279735
5 0.0595998 -0.05 -0.0443795
5 0.0507211 0.06 -0.00894633
5 0.0507211 -0.06 -0.0579728
5 0.0357425 0.07 0.0213259
5 0.0357425 -0.07 -0.0576593
5 0.0766105 -0.02 -0.0238777
5 0.0766105 0.02 -0.0420128
5 0.0785979 -0.01 -0.0273941
5 0.0785979 0.01 -0.0388615
5 0.0688745 -0.04 -0.0367307
5 0.0688745 0.04 -0.0394681
5 0 0.08 0.0598703
5 0 -0.08 -0.0377336
5 0.00256965 0.08 0.0591557
5 0.00256965 -0.08 -0.0376986
5 0.0389677 0.07 0.0165628
5 0.0389678 -0.07 -0.0607985
5 0.00518642 0.08 0.0577819
5 0.00518642 -0.08 -0.0380044
5 0.00785119 0.08 0.0557849
5 0.00785119 -0.08 -0.0390078
5 0.0746589 -0.03 -0.020417
5 0.0746589 0.03 -0.0445546
5 0.0805853 0 -0.0330689
5 0.0632626 0.05 -0.0319362
5 0.0632626 -0.05 -0.0473561
5 0.0105648 0.08 0.0527189
5 0.0105648 -0.08 -0.04067
5 0.054221 0.06 -0.0136124
5 0.054221 -0.06 -0.0618938
5 0.0133283 0.08 0.0491259
5 0.0133283 -0.08 -0.0429686
5 0.0161424 0.08 0.0453766
5 0.0161424 -0.08 -0.045775
5 0.0422521 0.07 0.0117853
5 0.0422521 -0.07 -0.0644546
5 0.0190081 0.08 0.0416662
5 0.0190081 -0.08 -0.0489258
5 0.0219263 0.08 0.0381101
5 0.0219263 -0.08 -0.0522944
5 0.0727073 -0.04 -0.037829
5 0.0727073 0.04 -0.0421384
5 0.0805853 -0.02 -0.0233667
5 0.0805853 0.02 -0.0430211
5 0.0826091 -0.01 -0.0267994
5 0.0826091 0.01 -0.0392207
5 0.0577851 0.06 -0.0181468
5 0.0577851 -0.06 -0.0661912
5 0.0455967 0.07 0.00690399
5 0.0455967 -0.07 -0.06879
5 0.0669926 -0.05 -0.0505711
5 0.0669926 0.05 -0.035653
5 0.0248981 0.08 0.0347508
5 0.0248981 -0.08 -0.055782
5 0.0785979 -0.03 -0.0198843
5 0.0785979 0.03 -0.0462539
5 0.0846329 0 -0.0328665
5 0.0279244 0.08 0.0315737
5 0.0279244 -0.08 -0.0593454
5 0.0490027 0.07 0.00190245
5 0.0490027 -0.07 -0.0739103
5 0.0310063 0.08 0.028514
5 0.0310063 -0.08 -0.0630145
5 0.0614146 -0.06 -0.0706708
5 0.0614146 0.06 -0.0225228
5 0.0766105 -0.04 -0.0385626
5 0.0766105 0.04 -0.0445604
5 0.0707909 -0.05 -0.0536714
5 0.0707909 0.05 -0.039095
5 0.0846329 -0.02 -0.0227545
5 0.0846329 0.02 -0.0438781
5 0.0341446 0.08 0.0254659
5 0.0341446 -0.08 -0.0668854
5 0.0866938 -0.01 -0.0259601
5 0.0866938 0.01 -0.0394858
5 0.052471 0.07 -0.00309585
5 0.0524711 -0.07 -0.0797816
5 0.0826091 -0.03 -0.0193887
5 0.0826091 0.03 -0.0477488
5 0.0373405 0.08 0.0223296
5 0.0373405 -0.08 -0.0711163
5 0.0651106 -0.06 -0.0751119
5 0.0651106 0.06 -0.0267139
5 0.0887548 0 -0.032523
5 0.056003 0.07 -0.00800641
5 0.056003 -0.07 -0.0860912
5 0.040595 0.08 0.0190518
5 0.040595 -0.08 -0.0758733
5 0.0746589 -0.05 -0.0562294
5 0.0746589 0.05 -0.0422658
5 0.0805853 -0.04 -0.0387635
5 0.0805853 0.04 -0.0467385
5 0.00128482 0.09 0.0531629
5 0.00128482 -0.09 -0.037566
5 0.00387804 0.09 0.0520696
5 0.00387804 -0.09 -0.0371759
5 0.0065188 0.09 0.0503355
5 0.0065188 -0.09 -0.038132
5 0.00920799 0.09 0.0473067
5 0.00920799 -0.09 -0.0399717
5 0.0119465 0.09 0.0437682
5 0.0119465 -0.09 -0.0427677
5 0.0887548 -0.02 -0.0219975
5 0.0887548 0.02 -0.0446047
5 0.0147353 0.09 0.0403411
5 0.0147354 -0.09 -0.0464114
5 0.0439092 0.08 0.0155922
5 0.0439092 -0.08 -0.0813007
5 0.0688745 -0.06 -0.0792327
5 0.0688745 0.06 -0.030703
5 0.0908535 -0.01 -0.0249884
5 0.0908535 0.01 -0.0396576
5 0.0175753 0.09 0.0372292
5 0.0175753 -0.09 -0.0506776
5 0.0866938 -0.03 -0.0188694
5 0.0866938 0.03 -0.0490576
5 0.0595998 0.07 -0.0127836
5 0.0595999 -0.07 -0.0924424
5 0.0204672 0.09 0.0345739
5 0.0204672 -0.09 -0.0553031
5 0.0472842 0.08 0.0119266
5 0.0472842 -0.08 -0.0875177
5 0.0929523 0 -0.0321106
5 0.0234122 0.09 0.0324107
5 0.0234122 -0.09 -0.0600925
5 0.0785979 -0.05 -0.0577199
5 0.0785979 0.05 -0.045168
5 0.0846329 -0.04 -0.0384031
5 0.0846329 0.04 -0.0486721
5 0.0264113 0.09 0.0306734
5 0.0264113 -0.09 -0.0649443
5 0.0727073 -0.06 -0.0826635
5 0.0727073 0.06 -0.0344804
5 0.0632626 -0.07 -0.0985065
5 0.0632626 0.07 -0.017399
5 0.0294653 0.09 0.0292502
5 0.0294653 -0.09 -0.0698541
5 0.0507211 0.08 0.00809771
5 0.0507211 -0.08 -0.0945708
5 0.0929523 -0.02 -0.0211512
5 0.0929523 0.02 -0.0452078
5 0.0950895 -0.01 -0.0241241
5 0.0950895 0.01 -0.0396721
5 0.0908535 -0.03 -0.0181719
5 0.0908535 0.03 -0.0502182
5 0.0325754 0.09 0.0279387
5 0.0325754 -0.09 -0.0748566
5 0.0826091 -0.05 -0.058061
5 0.0826091 0.05 -0.0477839
5 0.054221 0.08 0.00414342
5 0.054221 -0.08 -0.102367
5 0.0357425 0.09 0.0265335
5 0.0357425 -0.09 -0.0801172
5 0.0669926 -0.07 -0.104015
5 0.0669925 0.07 -0.0218687
5 0.0972268 0 -0.0316876
5 0.0766105 -0.06 -0.0849593
5 0.0766105 0.06 -0.0380367
5 0.0887548 -0.04 -0.037464
5 0.0887548 0.04 -0.0503767
5 0.0389677 0.09 0.0248956
5 0.0389677 -0.09 -0.0858912
5 0.0577851 -0.08 -0.110675
5 0.0577851 0.08 4.92285e-05
5 0.0972268 -0.02 -0.0203077
5 0.0972268 0.02 -0.0457319
5 0.0422521 0.09 0.0229625
5 0.0422521 -0.09 -0.09235
5 0.0707909 -0.07 -0.108675
5 0.0707909 0.07 -0.0261966
5 0.0950895 -0.03 -0.01732
5 0.0950895 0.03 -0.0512836
5 0.0994034 -0.01 -0.0233133
5 0.0994034 0.01 -0.0396407
5 0 0.1 0.0394926
5 0 -0.1 -0.0315775
5 0.00256965 0.1 0.0394447
5 0.00256965 -0.1 -0.0312872
5 0.0866939 -0.05 -0.057293
5 0.0866939 0.05 -0.0500987
5 0.00518642 0.1 0.0384585
5 0.00518642 -0.1 -0.0314241
5 0.00785119 0.1 0.0360568
5 0.00785119 -0.1 -0.0327585
5 0.0805853 -0.06 -0.0858517
5 0.0805853 0.06 -0.0413569
5 0.0105648 0.1 0.0329772
5 0.0105648 -0.1 -0.0351318
5 0.0614146 -0.08 -0.119176
5 0.0614146 0.08 -0.00417827
5 0.0133283 0.1 0.0298833
5 0.0133283 -0.1 -0.0386023
5 0.0455967 0.09 0.0207163
5 0.0455967 -0.09 -0.0996095
5 0.0929523 -0.04 -0.035995
5 0.0929523 0.04 -0.0518933
5 0.0161424 0.1 0.0271909
5 0.0161424 -0.1 -0.0430426
5 0.10158 0 -0.0313128
5 0.0190081 0.1 0.0252373
5 0.0190081 -0.1 -0.0481839
5 0.0746589 -0.07 -0.11208
5 0.0746589 0.07 -0.0303655
5 0.0219263 0.1 0.0242348
5 0.0219263 -0.1 -0.0536809
5 0.0490027 0.09 0.0181827
5 0.0490027 -0.09 -0.107763
5 0.0248981 0.1 0.024081
5 0.0248981 -0.1 -0.0592966
5 0.0651106 -0.08 -0.127414
5 0.0651106 0.08 -0.00850056
5 0.10158 -0.02 -0.0195175
5 0.10158 0.02 -0.0462534
5 0.0908535 -0.05 -0.0555214
5 0.0908535 0.05 -0.0521329
5 0.0846329 -0.06 -0.0854006
5 0.0846329 0.06 -0.0444162
5 0.0279244 0.1 0.0245749
5 0.0279244 -0.1 -0.0649762
5 0.0994034 -0.03 -0.0164729
5 0.0994034 0.03 -0.0523315
5 0.0524711 0.09 0.0154005
5 0.0524711 -0.09 -0.11683
5 0.103796 -0.01 -0.0227004
5 0.103796 0.01 -0.0395968
5 0.0310063 0.1 0.0254255
5 0.0310063 -0.1 -0.0707379
5 0.0972268 -0.04 -0.0340978
5 0.0972268 0.04 -0.0532832
5 0.0785979 -0.07 -0.113809
5 0.0785979 0.07 -0.0343487
5 0.0688745 -0.08 -0.13482
5 0.0688745 0.08 -0.0128759
5 0.0341446 0.1 0.0262584
5 0.0341446 -0.1 -0.0766769
5 0.056003 0.09 0.0122743
5 0.056003 -0.09 -0.126769
5 0.106012 0 -0.0310737
5 0.0373405 0.1 0.0267895
5 0.0373405 -0.1 -0.0829595
5 0.0887548 -0.06 -0.0837393
5 0.0887548 0.06 -0.0471896
5 0.0950895 -0.05 -0.052966
5 0.0950895 0.05 -0.0539393
5 0.106012 -0.02 -0.0188614
5 0.106012 0.02 -0.0468217
5 0.040595 0.1 0.0268892
5 0.040595 -0.1 -0.0897328
5 0.0595999 -0.09 -0.137402
5 0.0595998 0.09 0.00871137
5 0.103796 -0.03 -0.0155831
5 0.103796 0.03 -0.0534448
5 0.0727073 -0.08 -0.140853
5 0.0727073 0.08 -0.017252
5 0.0826091 -0.07 -0.113817
5 0.0826091 0.07 -0.0381283
5 0.108269 -0.01 -0.0224012
5 0.108269 0.01 -0.0395966
5 0.10158 -0.04 -0.0318494
5 0.10158 0.04 -0.0546206
5 0.0439092 0.1 0.0265171
5 0.0439092 -0.1 -0.0970912
5 0.00128482 0.11 0.0258222
5 0.00128483 -0.11 -0.025589
5 0.0632626 -0.09 -0.148357
5 0.0632626 0.09 0.00475692
5 0.00387804 0.11 0.026724
5 0.00387803 -0.11 -0.0248177
5 0.0065188 0.11 0.0247047
5 0.0065188 -0.11 -0.0255711
5 0.00920799 0.11 0.0218798
5 0.00920799 -0.11 -0.0273596
5 0.110526 0 -0.0310099
5 0.0472842 0.1 0.0256254
5 0.0472842 -0.1 -0.10508
5 0.0929523 -0.06 -0.0809689
5 0.0929523 0.06 -0.0496725
5 0.0119466 0.11 0.0189534
5 0.0119466 -0.11 -0.0304288
5 0.0766105 -0.08 -0.145086
5 0.0766105 0.08 -0.0215657
5 0.0147354 0.11 0.0164701
5 0.0147353 -0.11 -0.0348021
5 0.0994034 -0.05 -0.0496315
5 0.0994034 0.05 -0.0555789
5 0.0175752 0.11 0.0147229
5 0.0175752 -0.11 -0.0402802
5 0.0866939 -0.07 -0.112431
5 0.0866938 0.07 -0.0416548
5 0.0204672 0.11 0.014423
5 0.0204672 -0.11 -0.0464756
5 0.0507211 0.1 0.0241649
5 0.0507211 -0.1 -0.113677
5 0.0669926 -0.09 -0.158781
5 0.0669926 0.09 0.000507177
5 0.110526 -0.02 -0.0184334
5 0.110526 0.02 -0.047487
5 0.108269 -0.03 -0.0147608
5 0.108269 0.03 -0.0546489
5 0.0234122 0.11 0.0155315
5 0.0234122 -0.11 -0.0528536
5 0.0264113 0.11 0.0177084
5 0.0264112 -0.11 -0.0592972
5 0.112824 -0.01 -0.0223433
5 0.112824 0.01 -0.0396984
5 0.106012 -0.04 -0.0294058
5 0.106012 0.04 -0.055973
5 0.0805853 -0.08 -0.147327
5 0.0805853 0.08 -0.0257516
5 0.054221 0.1 0.0221511
5 0.054221 -0.1 -0.122794
5 0.0294654 0.11 0.0206677
5 0.0294653 -0.11 -0.0658103
5 0.0972268 -0.06 -0.0771483
5 0.0972268 0.06 -0.051878
5 0.0707909 -0.09 -0.167811
5 0.0707909 0.09 -0.00394681
5 0.0908535 -0.07 -0.109711
5 0.0908535 0.07 -0.0448732
5 0.0325754 0.11 0.0238458
5 0.0325754 -0.11 -0.0724319
5 0.115123 0 -0.031134
5 0.103796 -0.05 -0.045709
5 0.103796 0.05 -0.0571277
5 0.0577851 -0.1 -0.132277
5 0.0577851 0.1 0.0196445
5 0.0357425 0.11 0.0267158
5 0.0357425 -0.11 -0.0793034
5 0.0846329 -0.08 -0.147625
5 0.0846329 0.08 -0.0297573
5 0.0389677 0.11 0.029013
5 0.0389677 -0.11 -0.0865276
5 0.112824 -0.03 -0.0142282
5 0.112824 0.03 -0.0560046
5 0.115123 -0.02 -0.0183185
5 0.115123 0.02 -0.0483011
5 0.0746589 -0.09 -0.174849
5 0.0746589 0.09 -0.00850073
5 0.0614146 -0.1 -0.14188
5 0.0614146 0.1 0.016699
5 0.110526 -0.04 -0.0270625
5 0.110526 0.04 -0.0574037
5 0.0422521 0.11 0.0306856
5 0.0422521 -0.11 -0.0941642
5 0.117463 -0.01 -0.0225308
5 0.117463 0.01 -0.0399637
5 0.10158 -0.06 -0.0723396
5 0.10158 0.06 -0.0538329
5 0.0950896 -0.07 -0.105676
5 0.0950895 0.07 -0.0477456
5 0.0455967 0.11 0.0317037
5 0.0455967 -0.11 -0.102243
5 0.108269 -0.05 -0.0415691
5 0.108269 0.05 -0.0586713
5 0.0651106 -0.1 -0.151172
5 0.0651106 0.1 0.0133647
5 0.0887548 -0.08 -0.145997
5 0.0887548 0.08 -0.0335354
5 0.0785979 -0.09 -0.179608
5 0.0785979 0.09 -0.0130493
5 0.119804 -3.70074e-17 -0.0314727
5 0 0.12 0.0313941
5 0 -0.12 -0.0158952
5 0.00256965 0.12 0.0317656
5 0.00256965 -0.12 -0.0156748
5 0.00518642 0.12 0.0315158
5 0.00518642 -0.12 -0.0156248
5 0.00785119 0.12 0.0300266
5 0.00785119 -0.12 -0.016354
5 0.0490027 0.11 0.0318988
5 0.0490027 -0.11 -0.110708
5 0.0105648 0.12 0.0283033
5 0.0105648 -0.12 -0.0180068
5 0.0133283 0.12 0.0267853
5 0.0133283 -0.12 -0.020823
5 0.0161424 0.12 0.0257264
5 0.0161424 -0.12 -0.0248488
5 0.117463 -0.03 -0.0141718
5 0.117463 0.03 -0.0575382
5 0.0688745 -0.1 -0.159558
5 0.0688745 0.1 0.0097084
5 0.119804 -0.02 -0.0185891
5 0.119804 0.02 -0.0492789
5 0.0190081 0.12 0.0253861
5 0.0190081 -0.12 -0.0298619
5 0.0994034 -0.07 -0.100318
5 0.0994034 0.07 -0.0502492
5 0.106012 -0.06 -0.0667821
5 0.106012 0.06 -0.0555756
5 0.0524711 0.11 0.0311772
5 0.0524711 -0.11 -0.11941
5 0.115123 -0.04 -0.0251336
5 0.115123 0.04 -0.0589667
5 0.0219263 0.12 0.0259498
5 0.0219263 -0.12 -0.0354925
5 0.0826091 -0.09 -0.182074
5 0.0826091 0.09 -0.0174817
5 0.0248981 0.12 0.0273088
5 0.0248981 -0.12 -0.0414751
5 0.122187 -0.01 -0.022995
5 0.122187 0.01 -0.0404014
5 0.0929523 -0.08 -0.142274
5 0.0929523 0.08 -0.0370455
5 0.0279244 0.12 0.0292365
5 0.0279244 -0.12 -0.047662
5 0.112824 -0.05 -0.0376907
5 0.112824 0.05 -0.0602906
5 0.0560031 0.11 0.0297516
5 0.056003 -0.11 -0.128169
5 0.0727073 -0.1 -0.166494
5 0.0727073 0.1 0.00582135
5 0.0310063 0.12 0.0314193
5 0.0310063 -0.12 -0.0538643
5 0.124571 0 -0.0320406
5 0.0341446 0.12 0.0335223
5 0.0341446 -0.12 -0.0599015
5 0.0866939 -0.09 -0.182177
5 0.0866938 0.09 -0.0217657
5 0.0595998 -0.11 -0.136771
5 0.0595998 0.11 0.02784
5 0.103796 -0.07 -0.093698
5 0.103796 0.07 -0.0523765
5 0.0373405 0.12 0.0353457
5 0.0373405 -0.12 -0.0657314
5 0.110526 -0.06 -0.0608968
5 0.110526 0.06 -0.0571471
5 0.122187 -0.03 -0.014659
5 0.122187 0.03 -0.0592127
5 0.0972268 -0.08 -0.136256
5 0.0972268 0.08 -0.0402658
5 0.0766105 -0.1 -0.1716
5 0.0766105 0.1 0.00179741
5 0.124571 -0.02 -0.0192653
5 0.124571 0.02 -0.0503652
5 0.119804 -0.04 -0.0238106
5 0.119804 0.04 -0.0606541
5 0.040595 0.12 0.0368084
5 0.040595 -0.12 -0.0714615
5 0.0632626 -0.11 -0.144994
5 0.0632626 0.11 0.0254867
5 0.126998 -0.01 -0.0237487
5 0.126999 0.01 -0.0410175
5 0.117463 -0.05 -0.0344429
5 0.117463 0.05 -0.0620341
5 0.0439092 0.12 0.037858
5 0.0439092 -0.12 -0.0772316
5 0.0908535 -0.09 -0.17967
5 0.0908535 0.09 -0.0258493
5 0.0805853 -0.1 -0.174628
5 0.0805853 0.1 -0.00230205
5 0.0669926 -0.11 -0.152559
5 0.0669926 0.11 0.0227071
5 0.108269 -0.07 -0.0861498
5 0.108269 0.07 -0.0541278
5 0.0472842 0.12 0.0384248
5 0.0472842 -0.12 -0.0830987
5 0.10158 -0.08 -0.127936
5 0.10158 0.08 -0.0431797
5 0.129426 0 -0.032817
5 0.115123 -0.06 -0.0551596
5 0.115123 0.06 -0.0585746
5 0.00128482 0.13 0.0369661
5 0.00128482 -0.13 -0.00620143
5 0.00387803 0.13 0.0375502
5 0.00387804 -0.13 -0.00609095
5 0.0065188 0.13 0.0370839
5 0.0065188 -0.13 -0.00601931
5 0.0507211 0.12 0.0384353
5 0.0507211 -0.12 -0.0890244
5 0.00920799 0.13 0.0364375
5 0.00920799 -0.13 -0.00646598
5 0.126998 -0.03 -0.0156591
5 0.126998 0.03 -0.0608296
5 0.0119466 0.13 0.0359422
5 0.0119466 -0.13 -0.00777324
5 0.0707909 -0.11 -0.159084
5 0.0707909 0.11 0.0195649
5 0.0147353 0.13 0.0357753
5 0.0147353 -0.13 -0.0102887
5 0.124571 -0.04 -0.0231299
5 0.124571 0.04 -0.0623461
5 0.0950896 -0.09 -0.174039
5 0.0950896 0.09 -0.0297153
5 0.129426 -0.02 -0.020313
5 0.129426 0.02 -0.051429
5 0.0846329 -0.1 -0.17542
5 0.0846329 0.1 -0.00643423
5 0.0175752 0.13 0.0359373
5 0.0175752 -0.13 -0.0140251
5 0.0204672 0.13 0.0364611
5 0.0204672 -0.13 -0.0186679
5 0.054221 -0.12 -0.0949267
5 0.054221 0.12 0.0378672
5 0.122187 -0.05 -0.0319683
5 0.122187 0.05 -0.0638323
5 0.0234122 0.13 0.0373837
5 0.0234122 -0.13 -0.0239742
5 0.131898 -0.01 -0.0247586
5 0.131898 0.01 -0.0417438
5 0.0264112 0.13 0.038612
5 0.0264112 -0.13 -0.0297766
5 0.112824 -0.07 -0.0781749
5 0.112824 0.07 -0.0554994
5 0.106012 -0.08 -0.117711
5 0.106012 0.08 -0.0457571
5 0.0746589 -0.11 -0.164232
5 0.0746589 0.11 0.0161667
5 0.0577851 -0.12 -0.100707
5 0.0577851 0.12 0.0367791
5 0.0294654 0.13 0.0399584
5 0.0294653 -0.13 -0.0357652
5 0.0887548 -0.1 -0.173807
5 0.0887548 0.1 -0.010535
5 0.119804 -0.06 -0.0499548
5 0.119804 0.06 -0.0598546
5 0.0325754 0.13 0.0412058
5 0.0325754 -0.13 -0.0414509
5 0.0994034 -0.09 -0.164989
5 0.0994034 0.09 -0.0333545
5 0.134369 0 -0.0337459
5 0.0614146 -0.12 -0.106256
5 0.0614146 0.12 0.0352351
5 0.0357425 0.13 0.0423221
5 0.0357425 -0.13 -0.0464212
5 0.0785979 -0.11 -0.167712
5 0.0785979 0.11 0.0125716
5 0.131898 -0.03 -0.0170863
5 0.131898 0.03 -0.0621257
5 0.129426 -0.04 -0.0230343
5 0.129426 0.04 -0.0637926
5 0.0389678 0.13 0.0433324
5 0.0389678 -0.13 -0.0506746
5 0.134369 -0.02 -0.0216475
5 0.134369 0.02 -0.0522752
5 0.110526 -0.08 -0.106385
5 0.110526 0.08 -0.0479477
5 0.126999 -0.05 -0.030233
5 0.126998 0.05 -0.0655106
5 0.0651106 -0.12 -0.111445
5 0.0651106 0.12 0.0332627
5 0.0929523 -0.1 -0.169469
5 0.0929523 0.1 -0.0145563
5 0.0422521 0.13 0.0442029
5 0.0422521 -0.13 -0.0544809
5 0.117464 -0.07 -0.0703274
5 0.117464 0.07 -0.056475
5 0.136886 -0.01 -0.0259736
5 0.136886 0.01 -0.0425082
5 0.103796 -0.09 -0.152738
5 0.103796 0.09 -0.0367397
5 0.0826091 -0.11 -0.169116
5 0.0826091 0.11 0.00874978
5 0.0455967 0.13 0.0448402
5 0.0455967 -0.13 -0.0580399
5 0.124571 -0.06 -0.0454945
5 0.124571 0.06 -0.0609301
5 0.0688745 -0.12 -0.116093
5 0.0688745 0.12 0.0308886
5 0.0490027 0.13 0.0452565
5 0.0490027 -0.13 -0.0614052
5 0.139403 0 -0.03474
5 0.0972268 -0.1 -0.162127
5 0.0972268 0.1 -0.01846
5 0 0.14 0.0426535
5 0 -0.14 -0.0116761
5 0.00256965 0.14 0.0427743
5 0.00256965 -0.14 -0.0115592
5 0.0866939 -0.11 -0.168311
5 0.0866938 0.11 0.00475925
5 0.00518642 0.14 0.0428077
5 0.00518642 -0.14 -0.0115644
5 0.136886 -0.03 -0.0187722
5 0.136886 0.03 -0.0627234
5 0.052471 0.13 0.0454085
5 0.052471 -0.13 -0.0645758
5 0.115123 -0.08 -0.0948296
5 0.115123 0.08 -0.049702
5 0.134369 -0.04 -0.0234008
5 0.134369 0.04 -0.0646296
5 0.00785119 0.14 0.0426063
5 0.00785119 -0.14 -0.0120556
5 0.0727073 -0.12 -0.119992
5 0.0727073 0.12 0.0281437
5 0.0105648 0.14 0.0424327
5 0.0105648 -0.14 -0.0130897
5 0.0133283 0.14 0.04241
5 0.0133283 -0.14 -0.0147465
5 0.108269 -0.09 -0.138255
5 0.108269 0.09 -0.0397854
5 0.122188 -0.07 -0.0630783
5 0.122187 0.07 -0.0570776
5 0.139403 -0.02 -0.0231409
5 0.139403 0.02 -0.0527102
5 0.0161424 0.14 0.0425727
5 0.0161424 -0.14 -0.0170009
5 0.131898 -0.05 -0.0291588
5 0.131898 0.05 -0.066705
5 0.0190081 0.14 0.0429127
5 0.0190081 -0.14 -0.019657
5 0.056003 -0.13 -0.0675541
5 0.056003 0.13 0.0451312
5 0.0219263 0.14 0.0434314
5 0.0219263 -0.14 -0.0224707
5 0.0248981 0.14 0.0441026
5 0.0248981 -0.14 -0.0252507
5 0.141966 -0.01 -0.027295
5 0.141966 0.01 -0.0431838
5 0.0766105 -0.12 -0.123004
5 0.0766105 0.12 0.0250452
5 0.10158 -0.1 -0.151897
5 0.10158 0.1 -0.0221728
5 0.129426 -0.06 -0.0418515
5 0.129426 0.06 -0.061585
5 0.0908535 -0.11 -0.165068
5 0.0908535 0.11 0.000714261
5 0.0279244 0.14 0.0448463
5 0.0279244 -0.14 -0.0278086
5 0.0595998 -0.13 -0.0703377
5 0.0595999 0.13 0.0443931
5 0.0310063 0.14 0.0455496
5 0.0310063 -0.14 -0.0299426
5 0.119804 -0.08 -0.0838582
5 0.119804 0.08 -0.0509934
5 0.0341446 0.14 0.0461588
5 0.0341446 -0.14 -0.0315194
5 0.112824 -0.09 -0.122956
5 0.112824 0.09 -0.0423791
5 0.14453 -3.70074e-17 -0.0356601
5 0.0805853 -0.12 -0.12503
5 0.0805853 0.12 0.0216183
5 0.0632626 -0.13 -0.0729225
5 0.0632626 0.13 0.0432199
5 0.0373405 0.14 0.0466978
5 0.0373405 -0.14 -0.032605
5 0.126999 -0.07 -0.0566961
5 0.126998 0.07 -0.0573004
5 0.139403 -0.04 -0.0240658
5 0.139403 0.04 -0.0644359
5 0.141966 -0.03 -0.0205235
5 0.141966 0.03 -0.0624254
5 0.0950896 -0.11 -0.159097
5 0.0950895 0.11 -0.00337636
5 0.136886 -0.05 -0.0285863
5 0.136886 0.05 -0.0669645
5 0.106012 -0.1 -0.139442
5 0.106012 0.1 -0.0256168
5 0.040595 0.14 0.0471787
5 0.040595 -0.14 -0.0334447
5 0.14453 -0.02 -0.024646
5 0.14453 0.02 -0.0525722
5 0.0669925 -0.13 -0.0753067
5 0.0669925 0.13 0.0416366
5 0.0439092 0.14 0.0475825
5 0.0439092 -0.14 -0.0342891
5 0.0846329 -0.12 -0.125936
5 0.0846329 0.12 0.0179537
5 0.134369 -0.06 -0.0390062
5 0.134369 0.06 -0.0614733
5 0.14714 -0.01 -0.0285925
5 0.14714 0.01 -0.0435697
5 0.0472842 0.14 0.047902
5 0.0472842 -0.14 -0.0352847
5 0.117463 -0.09 -0.107855
5 0.117463 0.09 -0.0444553
5 0.0707909 -0.13 -0.077422
5 0.0707909 0.13 0.0396451
5 0.124571 -0.08 -0.074063
5 0.124571 0.08 -0.0518098
5 0.0994034 -0.11 -0.15038
5 0.0994034 0.11 -0.00739529
5 0.0507211 -0.14 -0.0364786
5 0.0507211 0.14 0.0481235
5 0.110526 -0.1 -0.125804
5 0.110526 0.1 -0.0287064
5 0.0887548 -0.12 -0.125506
5 0.0887548 0.12 0.0141868
5 0.131898 -0.07 -0.0513163
5 0.131898 0.07 -0.0568242
5 0.14975 0 -0.036349
5 0.0746589 -0.13 -0.0792332
5 0.0746589 0.13 0.037197
5 0.14453 -0.04 -0.0248567
5 0.14453 0.04 -0.0629994
5 0.00128483 0.15 0.0483409
5 0.00128482 -0.15 -0.0171508
5 0.00387803 0.15 0.0482402
5 0.00387804 -0.15 -0.0167937
5 0.054221 -0.14 -0.037868
5 0.054221 0.14 0.0481677
5 0.00651881 0.15 0.0483566
5 0.0065188 -0.15 -0.0173535
5 0.14714 -0.03 -0.0221739
5 0.14714 0.03 -0.0611096
5 0.00920799 0.15 0.0485472
5 0.009208 -0.15 -0.0183839
5 0.0119466 0.15 0.0488037
5 0.0119466 -0.15 -0.0197359
5 0.141966 -0.05 -0.0283815
5 0.141966 0.05 -0.0656298
5 0.0147354 0.15 0.0491187
5 0.0147353 -0.15 -0.0211886
5 0.0175752 0.15 0.0494597
5 0.0175753 -0.15 -0.0225018
5 0.14975 -0.02 -0.026021
5 0.14975 0.02 -0.0517191
5 0.103796 -0.11 -0.139477
5 0.103796 0.11 -0.0112034
5 0.0204672 0.15 0.0497927
5 0.0204672 -0.15 -0.0234337
5 0.0577851 -0.14 -0.0394284
5 0.0577851 0.14 0.0479667
5 0.122187 -0.09 -0.0941671
5 0.122187 0.09 -0.045966
5 0.139403 -0.06 -0.036863
5 0.139403 0.06 -0.0603748
5 0.0929523 -0.12 -0.123452
5 0.0929523 0.12 0.0104135
5 0.0234122 0.15 0.0500882
5 0.0234122 -0.15 -0.0238074
5 0.0785979 -0.13 -0.0808392
5 0.0785979 0.13 0.0342446
5 0.129426 -0.08 -0.0656542
5 0.129426 0.08 -0.0520523
5 0.0264112 0.15 0.0503267
5 0.0264112 -0.15 -0.0234451
5 0.115123 -0.1 -0.111997
5 0.115123 0.1 -0.0313692
5 0.152408 -0.01 -0.0297225
5 0.152408 0.01 -0.0435115
5 0.0294654 0.15 0.0504883
5 0.0294654 -0.15 -0.0222481
5 0.0614146 -0.14 -0.0411198
5 0.0614146 0.14 0.0475236
5 0.0325754 0.15 0.0505462
5 0.0325754 -0.15 -0.0203065
5 0.136886 -0.07 -0.0469618
5 0.136886 0.07 -0.0553994
5 0.0826091 -0.13 -0.0824529
5 0.0826091 0.13 0.0309061
5 0.0357425 0.15 0.0505612
5 0.0357426 -0.15 -0.0178992
5 0.108269 -0.11 -0.127293
5 0.108269 0.11 -0.01474
5 0.0651106 -0.14 -0.0428844
5 0.0651106 0.14 0.0468275
5 0.0972268 -0.12 -0.119545
5 0.0972268 0.12 0.006716
5 0.0389677 0.15 0.0505758
5 0.0389677 -0.15 -0.0154252
5 0.14975 -0.04 -0.0256334
5 0.14975 0.04 -0.0603741
5 0.155066 0 -0.0366906
5 0.152408 -0.03 -0.023596
5 0.152408 0.03 -0.0586846
5 0.14714 -0.05 -0.0283483
5 0.14714 0.05 -0.0628315
5 0.126999 -0.09 -0.0823058
5 0.126999 0.09 -0.0468956
5 0.0422521 0.15 0.0506039
5 0.0422521 -0.15 -0.0131984
5 0.0688745 -0.14 -0.0446843
5 0.0688745 0.14 0.0458114
5 0.119804 -0.1 -0.098924
5 0.119804 0.1 -0.0335678
5 0.0866939 -0.13 -0.0838642
5 0.0866939 0.13 0.0273983
5 0.155066 -0.02 -0.0271541
5 0.155066 0.02 -0.0501071
5 0.134369 -0.08 -0.0586783
5 0.134369 0.08 -0.0515559
5 0.14453 -0.06 -0.0352651
5 0.14453 0.06 -0.0582231
5 0.0455967 0.15 0.050683
5 0.0455967 -0.15 -0.0114375
5 0.10158 -0.12 -0.113829