# U  POINT_DATA 90431
# x  y  z  U_x  U_y  U_z
5 0 0 0 0 0
5 0.00256965 0 -0.165833 -0.00335022 -0.325729
5 0.00518642 0 -0.221037 -0.00753841 -0.413253
5 0.00785119 0 -0.26506 -0.0137212 -0.473148
5 0.00128482 0.01 -0.150315 -0.00292512 -0.280492
5 0.00128483 -0.01 -0.123233 -0.00125153 -0.272112
5 0.0105648 0 -0.290698 -0.0204093 -0.501491
5 0.00387804 0.01 -0.213551 -0.00632774 -0.377721
5 0.00387803 -0.01 -0.176241 -0.00289688 -0.372606
5 0.0065188 0.01 -0.268433 -0.0141526 -0.449407
5 0.0065188 -0.01 -0.225933 -0.00677728 -0.453289
5 0.0133283 0 -0.299648 -0.0270072 -0.505674
5 0.00920799 0.01 -0.302851 -0.0225947 -0.487222
5 0.00920799 -0.01 -0.26303 -0.0113612 -0.502679
5 0.0119465 0.01 -0.3155 -0.0313007 -0.496891
5 0.0119466 -0.01 -0.281412 -0.0163819 -0.519173
5 0.0161424 0 -0.299353 -0.0328814 -0.497246
5 0.0147353 0.01 -0.316733 -0.039284 -0.493031
5 0.0147353 -0.01 -0.284946 -0.0210632 -0.513598
5 0.0190081 0 -0.295248 -0.0377988 -0.483313
5 0 0.02 0 0 0
5 0 -0.02 0 0 0
5 0.00256965 0.02 -0.202476 -0.0074589 -0.316498
5 0.00256965 -0.02 -0.139546 -0.00225909 -0.314739
5 0.0175753 0.01 -0.314297 -0.0462164 -0.48416
5 0.0175753 -0.01 -0.281435 -0.0249632 -0.498193
5 0.00518642 0.02 -0.264374 -0.0159736 -0.395274
5 0.00518642 -0.02 -0.187514 -0.00503612 -0.406237
5 0.00785119 0.02 -0.306656 -0.0277654 -0.444183
5 0.00785119 -0.02 -0.228728 -0.00911032 -0.474192
5 0.0219263 0 -0.289216 -0.041716 -0.466309
5 0.0105648 0.02 -0.325873 -0.0394561 -0.465155
5 0.0105648 -0.02 -0.256157 -0.0134926 -0.510658
5 0.0204672 0.01 -0.310249 -0.052002 -0.47245
5 0.0204672 -0.01 -0.275008 -0.0280143 -0.478445
5 0.0133283 0.02 -0.330421 -0.050502 -0.469522
5 0.0133283 -0.02 -0.267621 -0.017776 -0.517828
5 0.0248981 0 -0.281685 -0.0446454 -0.447024
5 0.0234122 0.01 -0.304754 -0.0566314 -0.458358
5 0.0234122 -0.01 -0.26685 -0.0302171 -0.455981
5 0.0161424 0.02 -0.329656 -0.0603285 -0.467028
5 0.0161424 -0.02 -0.267519 -0.0214591 -0.506285
5 0.0190081 0.02 -0.32728 -0.0687925 -0.461348
5 0.0190081 -0.02 -0.261562 -0.024369 -0.48587
5 0.0279244 0 -0.272815 -0.0466242 -0.426001
5 0.0264112 0.01 -0.297907 -0.0601715 -0.44218
5 0.0264112 -0.01 -0.257228 -0.0315619 -0.431572
5 0.0219263 0.02 -0.323758 -0.0758617 -0.453271
5 0.0219263 -0.02 -0.252747 -0.0265128 -0.461143
5 0.00128483 0.03 -0.185758 -0.00676737 -0.26015
5 0.00128482 -0.03 -0.106477 -0.00159339 -0.257073
5 0.00387803 0.03 -0.260292 -0.0138162 -0.347643
5 0.00387803 -0.03 -0.152241 -0.00329482 -0.357183
5 0.0065188 0.03 -0.31523 -0.0295995 -0.406335
5 0.0065188 -0.03 -0.195648 -0.00717609 -0.441882
5 0.0310063 0 -0.262701 -0.0476901 -0.403304
5 0.0294653 0.01 -0.289967 -0.0627311 -0.424531
5 0.0294653 -0.01 -0.246156 -0.0320328 -0.405717
5 0.00920799 0.03 -0.340115 -0.0447169 -0.433775
5 0.00920799 -0.03 -0.230306 -0.0111274 -0.498925
5 0.0248981 0.02 -0.319068 -0.0815875 -0.443047
5 0.0248981 -0.02 -0.242006 -0.0278764 -0.433532
5 0.0119466 0.03 -0.345026 -0.0592142 -0.442732
5 0.0119465 -0.03 -0.249882 -0.0151006 -0.521859
5 0.0147353 0.03 -0.344425 -0.072211 -0.445435
5 0.0147353 -0.03 -0.254245 -0.018559 -0.51668
5 0.0325754 0.01 -0.28106 -0.0643676 -0.404766
5 0.0325754 -0.01 -0.233617 -0.0316291 -0.378196
5 0.0341446 0 -0.251355 -0.0478926 -0.378895
5 0.0279244 0.02 -0.31349 -0.0860643 -0.430844
5 0.0279244 -0.02 -0.229587 -0.0284193 -0.403715
5 0.0175753 0.03 -0.343167 -0.0836043 -0.445486
5 0.0175753 -0.03 -0.249448 -0.0212517 -0.496667
5 0.0204672 0.03 -0.341406 -0.0933487 -0.443295
5 0.0204672 -0.03 -0.240356 -0.0232472 -0.470172
5 0.0310063 0.02 -0.307286 -0.0893671 -0.416746
5 0.0310063 -0.02 -0.215643 -0.0281481 -0.372092
5 0.0357425 0.01 -0.271087 -0.0651477 -0.383256
5 0.0357425 -0.01 -0.219654 -0.0304257 -0.349358
5 0.0373405 0 -0.238731 -0.0473295 -0.353128
5 0.0234122 0.03 -0.338624 -0.101466 -0.438979
5 0.0234122 -0.03 -0.228772 -0.0245729 -0.439969
5 0.0341446 0.02 -0.300427 -0.0915544 -0.400778
5 0.0341446 -0.02 -0.200476 -0.0271938 -0.3392
5 0.0264112 0.03 -0.334987 -0.108082 -0.432669
5 0.0264112 -0.03 -0.215172 -0.025154 -0.406599
5 0 0.04 0 0 0
5 0 -0.04 0 0 0
5 0.00256965 0.04 -0.246041 -0.0139054 -0.26918
5 0.00256965 -0.04 -0.123113 -0.00284606 -0.304986
5 0.0389677 0.01 -0.259755 -0.065203 -0.360454
5 0.0389678 -0.01 -0.204424 -0.0285414 -0.319439
5 0.00518642 0.04 -0.311043 -0.028877 -0.334415
5 0.00518642 -0.04 -0.165203 -0.00597003 -0.397314
5 0.040595 0 -0.224928 -0.0461329 -0.326289
5 0.00785119 0.04 -0.345475 -0.048686 -0.373502
5 0.00785119 -0.04 -0.201615 -0.0102655 -0.468661
5 0.0105648 0.04 -0.354509 -0.0670401 -0.39273
5 0.0105648 -0.04 -0.226522 -0.0144445 -0.509486
5 0.0294653 0.03 -0.331097 -0.113273 -0.423995
5 0.0294653 -0.03 -0.199789 -0.0249285 -0.370964
5 0.0133283 0.04 -0.353296 -0.0838123 -0.402893
5 0.0133283 -0.04 -0.236642 -0.0182159 -0.518575
5 0.0373405 0.02 -0.292548 -0.0927265 -0.383055
5 0.0373405 -0.02 -0.184564 -0.0258445 -0.306065
5 0.0161424 0.04 -0.350811 -0.0986014 -0.409622
5 0.0161424 -0.04 -0.23435 -0.0212049 -0.50493
5 0.0422521 0.01 -0.247011 -0.064695 -0.336383
5 0.0422521 -0.01 -0.188521 -0.0260917 -0.288874
5 0.0439092 0 -0.210266 -0.0444362 -0.298712
5 0.0325754 0.03 -0.32702 -0.117097 -0.41369
5 0.0325754 -0.03 -0.183009 -0.0240017 -0.333483
5 0.0190081 0.04 -0.348844 -0.111388 -0.413981
5 0.0190081 -0.04 -0.224765 -0.0234049 -0.479599
5 0.040595 0.02 -0.283277 -0.0930609 -0.36371
5 0.040595 -0.02 -0.168569 -0.0245369 -0.273375
5 0.0219263 0.04 -0.346926 -0.122188 -0.416002
5 0.0219263 -0.04 -0.211278 -0.025001 -0.448607
5 0.0357425 0.03 -0.32254 -0.119606 -0.401397
5 0.0357426 -0.03 -0.165622 -0.0227186 -0.295757
5 0.0455967 0.01 -0.233167 -0.0637463 -0.311532
5 0.0455967 -0.01 -0.17236 -0.0232113 -0.258052
5 0.0248981 0.04 -0.344729 -0.131122 -0.415742
5 0.0248981 -0.04 -0.19527 -0.0261512 -0.414017
5 0.0472842 0 -0.195032 -0.0423582 -0.270864
5 0.0439092 0.02 -0.27268 -0.0927409 -0.342922
5 0.0439092 -0.02 -0.153018 -0.023556 -0.241543
5 0.0279244 0.04 -0.342558 -0.138349 -0.413207
5 0.0279244 -0.04 -0.177478 -0.0270218 -0.377011
5 0.0389677 0.03 -0.316809 -0.12095 -0.387109
5 0.0389678 -0.03 -0.148551 -0.0216921 -0.259697
5 0.0490026 0.01 -0.218202 -0.0624253 -0.28633
5 0.0490026 -0.01 -0.156394 -0.0200495 -0.227535
5 0.00128483 0.05 -0.22747 -0.011766 -0.199862
5 0.00128483 -0.05 -0.096267 -0.00219702 -0.253055
5 0.00387803 0.05 -0.310656 -0.0232733 -0.269076
5 0.00387803 -0.05 -0.137475 -0.00429931 -0.352649
5 0.0065188 0.05 -0.358002 -0.0488223 -0.314613
5 0.0065188 -0.05 -0.175456 -0.00911058 -0.437556
5 0.0310063 0.04 -0.340581 -0.144001 -0.408545
5 0.0310063 -0.04 -0.158723 -0.0279278 -0.339116
5 0.0507211 0 -0.179461 -0.0400338 -0.243214
5 0.00920799 0.05 -0.368554 -0.0716084 -0.33929
5 0.009208 -0.05 -0.205055 -0.0136485 -0.49629
5 0.0472842 0.02 -0.260784 -0.0919014 -0.321045
5 0.0472842 -0.02 -0.138027 -0.0232845 -0.211219
5 0.0119466 0.05 -0.364342 -0.0926239 -0.355128
5 0.0119465 -0.05 -0.22085 -0.0179024 -0.520873
5 0.0422521 0.03 -0.30953 -0.121396 -0.370889
5 0.0422521 -0.03 -0.132776 -0.0218221 -0.225481
5 0.0147353 0.05 -0.359388 -0.111203 -0.36828
5 0.0147353 -0.05 -0.221594 -0.0213021 -0.514888
5 0.0341446 0.04 -0.338562 -0.148159 -0.401867
5 0.0341446 -0.04 -0.139974 -0.0293844 -0.302442
5 0.0175753 0.05 -0.356263 -0.12739 -0.379288
5 0.0175753 -0.05 -0.212112 -0.0237071 -0.491482
5 0.052471 0.01 -0.20215 -0.0607994 -0.261184
5 0.0524711 -0.01 -0.141093 -0.0168602 -0.197801
5 0.0204672 0.05 -0.354541 -0.141209 -0.387856
5 0.0204672 -0.05 -0.19714 -0.0254139 -0.460069
5 0.054221 0 -0.163872 -0.0376277 -0.216128
5 0.0507211 0.02 -0.247467 -0.0906661 -0.298571
5 0.0507211 -0.02 -0.123349 -0.0241431 -0.18304
5 0.0455967 0.03 -0.301008 -0.121126 -0.352876
5 0.0455967 -0.03 -0.118412 -0.0230986 -0.193757
5 0.0373405 0.04 -0.336189 -0.150914 -0.393065
5 0.0373405 -0.04 -0.12197 -0.0320278 -0.269272
5 0.0234122 0.05 -0.353135 -0.152731 -0.393876
5 0.0234122 -0.05 -0.178841 -0.0267703 -0.424213
5 0.0264112 0.05 -0.352171 -0.162213 -0.397443
5 0.0264112 -0.05 -0.158292 -0.0281077 -0.385281
5 0.056003 0.01 -0.18543 -0.0589636 -0.236185
5 0.056003 -0.01 -0.126812 -0.013887 -0.169335
5 0.040595 0.04 -0.33311 -0.152434 -0.382132
5 0.040595 -0.04 -0.104968 -0.0365711 -0.240579
5 0.0490027 0.03 -0.290758 -0.120307 -0.333434
5 0.0490027 -0.03 -0.104939 -0.0267787 -0.165524
5 0.0577851 0 -0.148623 -0.0352865 -0.189974
5 0.054221 0.02 -0.232851 -0.0891666 -0.275677
5 0.054221 -0.02 -0.108508 -0.0265232 -0.157333
5 0.0294654 0.05 -0.351978 -0.169827 -0.39872
5 0.0294653 -0.05 -0.136656 -0.0298972 -0.345191
5 0.0439092 0.04 -0.328906 -0.152839 -0.369097
5 0.0439092 -0.04 -0.0888189 -0.0435815 -0.215875
5 0.0325754 0.05 -0.352229 -0.175806 -0.397775
5 0.0325754 -0.05 -0.115434 -0.0328841 -0.306818
5 0 0.06 0 0 0
5 0 -0.06 0 0 0
5 0.00256965 0.06 -0.29184 -0.0200111 -0.177621
5 0.00256965 -0.06 -0.112712 -0.00211818 -0.3014
5 0.00518642 0.06 -0.355204 -0.0415499 -0.226422
5 0.00518642 -0.06 -0.150107 -0.00462878 -0.393596
5 0.0595998 0.01 -0.168512 -0.057001 -0.211755
5 0.0595998 -0.01 -0.113732 -0.0112938 -0.142615
5 0.0524711 0.03 -0.278754 -0.119132 -0.313328
5 0.0524711 -0.03 -0.0909677 -0.0328843 -0.141292
5 0.00785119 0.06 -0.376657 -0.0690996 -0.260513
5 0.00785119 -0.06 -0.181246 -0.00814131 -0.465922
5 0.0105648 0.06 -0.371755 -0.094159 -0.284916
5 0.0105648 -0.06 -0.200934 -0.0116046 -0.508294
5 0.0577851 0.02 -0.217157 -0.0875419 -0.252505
5 0.0577851 -0.02 -0.0932757 -0.0308155 -0.134203
5 0.0614146 0 -0.133949 -0.0331567 -0.165086
5 0.0357426 0.05 -0.352459 -0.18013 -0.394603
5 0.0357425 -0.05 -0.0958262 -0.0379335 -0.273704
5 0.0133283 0.06 -0.360761 -0.11678 -0.30581
5 0.0133283 -0.06 -0.205859 -0.0148025 -0.517309
5 0.0472842 0.04 -0.323269 -0.152314 -0.354089
5 0.0472842 -0.04 -0.0733611 -0.0535157 -0.19529
5 0.0161424 0.06 -0.35192 -0.136648 -0.324935
5 0.0161424 -0.06 -0.197893 -0.0175562 -0.501042
5 0.0190081 0.06 -0.346584 -0.153778 -0.341767
5 0.0190081 -0.06 -0.182156 -0.0200773 -0.471978
5 0.0389677 0.05 -0.352947 -0.182969 -0.389148
5 0.0389677 -0.05 -0.0778784 -0.045768 -0.247922
5 0.056003 0.03 -0.265064 -0.117771 -0.292004
5 0.056003 -0.03 -0.0751539 -0.0424622 -0.120896
5 0.0219263 0.06 -0.344402 -0.168216 -0.355721
5 0.0219263 -0.06 -0.162615 -0.0224883 -0.437754
5 0.0632626 0.01 -0.151835 -0.054947 -0.188192
5 0.0632626 -0.01 -0.10171 -0.00938422 -0.117773
5 0.0614146 0.02 -0.200727 -0.0859111 -0.229456
5 0.0614146 -0.02 -0.0780605 -0.0370377 -0.113558
5 0.0507211 0.04 -0.316085 -0.151141 -0.337471
5 0.0507211 -0.04 -0.0587319 -0.0665697 -0.179076
5 0.0248981 0.06 -0.344431 -0.180118 -0.366555
5 0.0248981 -0.06 -0.141466 -0.0248409 -0.401695
5 0.0651106 0 -0.119901 -0.0313363 -0.141392
5 0.0422521 0.05 -0.353153 -0.18442 -0.381377
5 0.0422521 -0.05 -0.0606631 -0.0570035 -0.229211
5 0.0279244 0.06 -0.345772 -0.189765 -0.374316
5 0.0279244 -0.06 -0.120321 -0.0276182 -0.366225
5 0.0595998 0.03 -0.249615 -0.116432 -0.270072
5 0.0595998 -0.03 -0.0574005 -0.0556204 -0.103957
5 0.054221 0.04 -0.307229 -0.149509 -0.319461
5 0.054221 -0.04 -0.0453638 -0.0825586 -0.16669
5 0.0310063 0.06 -0.347899 -0.19746 -0.379192
5 0.0310063 -0.06 -0.100487 -0.0315887 -0.334066
5 0.0455967 0.05 -0.351933 -0.184416 -0.371243
5 0.0455967 -0.05 -0.0434206 -0.0724037 -0.215045
5 0.0669926 0.01 -0.135708 -0.0527933 -0.165406
5 0.0669926 -0.01 -0.0903456 -0.00822012 -0.0941888
5 0.0651106 0.02 -0.184049 -0.0843247 -0.206742
5 0.0651106 -0.02 -0.0637296 -0.0450228 -0.0953744
5 0.0688745 0 -0.106544 -0.0299221 -0.118803
5 0.0341446 0.06 -0.350448 -0.203474 -0.381405
5 0.0341446 -0.06 -0.0825755 -0.0375662 -0.307704
5 0.0490026 0.05 -0.349377 -0.183405 -0.358798
5 0.0490027 -0.05 -0.0266684 -0.0917848 -0.206828
5 0.00128483 0.07 -0.270785 -0.0141572 -0.0988673
5 0.00128483 -0.07 -0.0898978 -0.000547469 -0.250453
5 0.0632626 0.03 -0.232939 -0.115264 -0.247799
5 0.0632626 -0.03 -0.0393949 -0.0718544 -0.0898805
5 0.00387804 0.07 -0.358462 -0.0308499 -0.142689
5 0.00387803 -0.07 -0.127214 -0.00142912 -0.349457
5 0.0577851 0.04 -0.296368 -0.147605 -0.300239
5 0.0577851 -0.04 -0.0340406 -0.101008 -0.157003
5 0.0065188 0.07 -0.393702 -0.0632586 -0.179317
5 0.0065188 -0.07 -0.160288 -0.00367667 -0.434736
5 0.009208 0.07 -0.386371 -0.0927135 -0.208836
5 0.009208 -0.07 -0.184188 -0.00613009 -0.495117
5 0.0373405 0.06 -0.35317 -0.207985 -0.381143
5 0.0373405 -0.06 -0.0663272 -0.0462367 -0.288303
5 0.0119466 0.07 -0.367751 -0.119694 -0.236412
5 0.0119465 -0.07 -0.193644 -0.00873807 -0.520901
5 0.0707909 -0.01 -0.0798244 -0.00822616 -0.0721053
5 0.0707909 0.01 -0.120294 -0.0504484 -0.143504
5 0.0147354 0.07 -0.35156 -0.143605 -0.263425
5 0.0147354 -0.07 -0.187349 -0.0112678 -0.512574
5 0.0688745 -0.02 -0.051227 -0.0545703 -0.079598
5 0.0688745 0.02 -0.167513 -0.0827496 -0.184585
5 0.0175753 0.07 -0.340469 -0.164397 -0.288749
5 0.0175753 -0.07 -0.170515 -0.0139481 -0.485218
5 0.040595 0.06 -0.355788 -0.211062 -0.378507
5 0.040595 -0.06 -0.0511069 -0.0580284 -0.275357
5 0.052471 0.05 -0.345448 -0.181721 -0.344319
5 0.052471 -0.05 -0.0123486 -0.114835 -0.202658
5 0.0727073 0 -0.0940292 -0.0290851 -0.0976429
5 0.0204672 0.07 -0.335063 -0.182117 -0.311177
5 0.0204672 -0.07 -0.148856 -0.0172407 -0.451135
5 0.0614146 0.04 -0.283347 -0.145684 -0.280153
5 0.0614146 -0.04 -0.0259458 -0.121003 -0.148354
5 0.0669925 0.03 -0.21571 -0.114294 -0.225563
5 0.0669925 -0.03 -0.0234638 -0.0906351 -0.07965
5 0.0234122 0.07 -0.33487 -0.196808 -0.329976
5 0.0234122 -0.07 -0.125619 -0.0205287 -0.415591
5 0.0439092 0.06 -0.357835 -0.212778 -0.373467
5 0.0439092 -0.06 -0.0367714 -0.0732236 -0.267668
5 0.0264112 0.07 -0.337548 -0.208724 -0.344927
5 0.0264112 -0.07 -0.103107 -0.0239574 -0.381688
5 0.056003 0.05 -0.339646 -0.179411 -0.328188
5 0.056003 -0.05 -0.00298149 -0.140058 -0.201913
5 0.0746589 -0.01 -0.0702933 -0.00974169 -0.0520573
5 0.0746589 0.01 -0.105701 -0.0479239 -0.122898
5 0.0727073 -0.02 -0.0412281 -0.0651085 -0.0655514
5 0.0727073 0.02 -0.151284 -0.0811459 -0.163383
5 0.0294653 0.07 -0.341393 -0.218298 -0.356175
5 0.0294654 -0.07 -0.0832241 -0.0285113 -0.352732
5 0.0472842 0.06 -0.359039 -0.213253 -0.365946
5 0.0472842 -0.06 -0.0242501 -0.0916507 -0.2638
5 0.0651106 -0.04 -0.0223644 -0.141387 -0.139628
5 0.0651106 0.04 -0.268584 -0.143912 -0.259468
5 0.0766105 0 -0.0823261 -0.0289009 -0.0782547
5 0.0707909 -0.03 -0.0112708 -0.111203 -0.072443
5 0.0707909 0.03 -0.198337 -0.113462 -0.20386
5 0.0325754 0.07 -0.345998 -0.225911 -0.364098
5 0.0325754 -0.07 -0.066628 -0.0350633 -0.331515
5 0.0595998 0.05 -0.331143 -0.176806 -0.310687
5 0.0595998 -0.05 -0.000623519 -0.165896 -0.201242
5 0.0507211 0.06 -0.359322 -0.21263 -0.356003
5 0.0507211 -0.06 -0.0154148 -0.112504 -0.261677
5 0.0357425 0.07 -0.351107 -0.232052 -0.369144
5 0.0357425 -0.07 -0.0524098 -0.0443854 -0.318775
5 0.0766105 -0.02 -0.0338926 -0.0757092 -0.052635
5 0.0766105 0.02 -0.13537 -0.0795143 -0.143457
5 0.0785979 -0.01 -0.0612572 -0.0127559 -0.0343337
5 0.0785979 0.01 -0.0920486 -0.0451821 -0.103723
5 0.0688745 -0.04 -0.0240322 -0.16095 -0.12978
5 0.0688745 0.04 -0.252785 -0.142347 -0.238514
5 0 0.08 0 0 0
5 0 -0.08 0 0 0
5 0.00256965 0.08 -0.329179 -0.0199752 -0.0565312
5 0.00256965 -0.08 -0.105107 0.00282718 -0.286985
5 0.0389677 0.07 -0.356168 -0.236788 -0.371676
5 0.0389678 -0.07 -0.0391907 -0.0568623 -0.312809
5 0.00518642 0.08 -0.390861 -0.0435377 -0.0879352
5 0.00518642 -0.08 -0.138315 0.00496018 -0.378172
5 0.00785119 0.08 -0.398157 -0.0733734 -0.120786
5 0.00785119 -0.08 -0.164887 0.00734396 -0.451398
5 0.0746589 -0.03 -0.00352117 -0.131266 -0.0655954
5 0.0746589 0.03 -0.180798 -0.112748 -0.183261
5 0.0805853 0 -0.0713771 -0.0292137 -0.0608176
5 0.0632626 0.05 -0.319688 -0.174233 -0.292047
5 0.0632626 -0.05 -0.00636232 -0.190646 -0.198335
5 0.0105648 0.08 -0.375311 -0.101561 -0.154151
5 0.0105648 -0.08 -0.18069 0.00895907 -0.497403
5 0.054221 0.06 -0.358512 -0.211048 -0.343852
5 0.054221 -0.06 -0.0122854 -0.134586 -0.259137
5 0.0133283 0.08 -0.348087 -0.127451 -0.188231
5 0.0133283 -0.08 -0.182156 0.00962045 -0.512325
5 0.0161424 0.08 -0.325395 -0.150687 -0.22186
5 0.0161424 -0.08 -0.170019 0.00899985 -0.501674
5 0.0422521 0.07 -0.360884 -0.240073 -0.371825
5 0.0422521 -0.07 -0.0266917 -0.0724829 -0.311483
5 0.0190081 0.08 -0.309545 -0.171089 -0.253493
5 0.0190081 -0.08 -0.148997 0.00702049 -0.474849
5 0.0219263 0.08 -0.300805 -0.188621 -0.281881
5 0.0219263 -0.08 -0.124116 0.00394398 -0.440227
5 0.0727073 -0.04 -0.0307274 -0.178228 -0.117252
5 0.0727073 0.04 -0.236361 -0.141035 -0.217879
5 0.0805853 -0.02 -0.0293183 -0.0855406 -0.0410782
5 0.0805853 0.02 -0.119842 -0.077875 -0.124619
5 0.0826091 -0.01 -0.0527652 -0.0166046 -0.0194801
5 0.0826091 0.01 -0.0794334 -0.0423125 -0.0857275
5 0.0577851 0.06 -0.356279 -0.208661 -0.329786
5 0.0577851 -0.06 -0.0161534 -0.156536 -0.254003
5 0.0455967 0.07 -0.365372 -0.242204 -0.369421
5 0.0455967 -0.07 -0.0163068 -0.0910086 -0.314931
5 0.0669926 -0.05 -0.0202364 -0.212419 -0.190644
5 0.0669926 0.05 -0.305995 -0.171855 -0.272455
5 0.0248981 0.08 -0.298138 -0.203336 -0.305924
5 0.0248981 -0.08 -0.0991879 -0.000129576 -0.404205
5 0.0785979 -0.03 -0.000496704 -0.149076 -0.0585494
5 0.0785979 0.03 -0.162929 -0.112202 -0.16394
5 0.0846329 0 -0.0613401 -0.0299348 -0.0453927
5 0.0279244 0.08 -0.299855 -0.215499 -0.32492
5 0.0279244 -0.08 -0.0771822 -0.00536252 -0.372083
5 0.0490027 0.07 -0.369475 -0.24299 -0.36432
5 0.0490027 -0.07 -0.0106018 -0.111411 -0.318394
5 0.0310063 0.08 -0.3046 -0.225629 -0.338827
5 0.0310063 -0.08 -0.0599047 -0.0118936 -0.348106
5 0.0614146 -0.06 -0.0271641 -0.177082 -0.244024
5 0.0614146 0.06 -0.352068 -0.205691 -0.314123
5 0.0766105 -0.04 -0.0417883 -0.191692 -0.101419
5 0.0766105 0.04 -0.219109 -0.140069 -0.197948
5 0.0707909 -0.05 -0.0411594 -0.229547 -0.17638
5 0.0707909 0.05 -0.291094 -0.169777 -0.25217
5 0.0846329 -0.02 -0.0278577 -0.0938139 -0.0301697
5 0.0846329 0.02 -0.10488 -0.0762512 -0.106356
5 0.0341446 0.08 -0.311533 -0.234251 -0.348248
5 0.0341446 -0.08 -0.0470704 -0.0198711 -0.334003
5 0.0866938 -0.01 -0.0452012 -0.0213352 -0.00777921
5 0.0866938 0.01 -0.0679569 -0.0394874 -0.0685786
5 0.052471 0.07 -0.372987 -0.242405 -0.356571
5 0.0524711 -0.07 -0.0120384 -0.131993 -0.318829
5 0.0826091 -0.03 -0.00275309 -0.163729 -0.0519457
5 0.0826091 0.03 -0.144953 -0.111802 -0.145077
5 0.0373405 0.08 -0.319986 -0.241697 -0.354148
5 0.0373405 -0.08 -0.0366758 -0.0294103 -0.328273
5 0.0651106 -0.06 -0.0444082 -0.19505 -0.227512
5 0.0651106 0.06 -0.345554 -0.20239 -0.297178
5 0.0887548 0 -0.0525063 -0.0309636 -0.0315121
5 0.056003 0.07 -0.375968 -0.240653 -0.346327
5 0.056003 -0.07 -0.0217731 -0.151463 -0.313148
5 0.040595 0.08 -0.329373 -0.248033 -0.357418
5 0.040595 -0.08 -0.0270707 -0.0404244 -0.327617
5 0.0746589 -0.05 -0.0669614 -0.240901 -0.154585
5 0.0746589 0.05 -0.275209 -0.168154 -0.232216
5 0.0805853 -0.04 -0.0564021 -0.200776 -0.0827479
5 0.0805853 0.04 -0.200847 -0.139527 -0.178514
5 0.00128482 0.09 -0.295935 -0.00913054 0.0157847
5 0.00128482 -0.09 -0.0846397 0.00468218 -0.225627
5 0.00387804 0.09 -0.391547 -0.0257656 -0.000357748
5 0.00387804 -0.09 -0.118683 0.00860335 -0.32242
5 0.0065188 0.09 -0.419738 -0.0542816 -0.0293821
5 0.0065188 -0.09 -0.147082 0.0163436 -0.406089
5 0.00920799 0.09 -0.392816 -0.0832446 -0.0656139
5 0.00920799 -0.09 -0.167995 0.0228393 -0.469659
5 0.0119465 0.09 -0.354302 -0.110594 -0.105749
5 0.0119465 -0.09 -0.176934 0.0278653 -0.503941
5 0.0887548 -0.02 -0.0299188 -0.0996337 -0.0178154
5 0.0887548 0.02 -0.0906645 -0.0746119 -0.0887384
5 0.0147353 0.09 -0.318732 -0.135913 -0.147345
5 0.0147354 -0.09 -0.170698 0.0306224 -0.511884
5 0.0439092 0.08 -0.339296 -0.253312 -0.358529
5 0.0439092 -0.08 -0.0185128 -0.0527721 -0.329243
5 0.0688745 -0.06 -0.0662446 -0.209229 -0.203351
5 0.0688745 0.06 -0.336875 -0.199007 -0.279227
5 0.0908535 -0.01 -0.0390932 -0.0262819 0.00256823
5 0.0908535 0.01 -0.0577708 -0.0367503 -0.0522537
5 0.0175753 0.09 -0.290814 -0.158837 -0.187928
5 0.0175753 -0.09 -0.151511 0.0305926 -0.497015
5 0.0866938 -0.03 -0.0107114 -0.173589 -0.0414698
5 0.0866938 0.03 -0.127171 -0.111402 -0.126034
5 0.0595998 0.07 -0.37836 -0.237773 -0.333936
5 0.0595999 -0.07 -0.0392375 -0.168732 -0.299707
5 0.0204672 0.09 -0.271833 -0.179008 -0.226125
5 0.0204672 -0.09 -0.125103 0.0286776 -0.466021
5 0.0472842 0.08 -0.349356 -0.257463 -0.357529
5 0.0472842 -0.08 -0.0128676 -0.0659292 -0.330273
5 0.0929523 0 -0.0451464 -0.0318761 -0.0183028
5 0.0234122 0.09 -0.261453 -0.196556 -0.260252
5 0.0234122 -0.09 -0.0968812 0.024867 -0.428154
5 0.0785979 -0.05 -0.0961785 -0.245527 -0.12694
5 0.0785979 0.05 -0.257493 -0.16717 -0.212368
5 0.0846329 -0.04 -0.0735015 -0.204786 -0.0607401
5 0.0846329 0.04 -0.181823 -0.139392 -0.159337
5 0.0264113 0.09 -0.258681 -0.211258 -0.288545
5 0.0264113 -0.09 -0.0711399 0.0190998 -0.391379
5 0.0727073 -0.06 -0.0906241 -0.218702 -0.171671
5 0.0727073 0.06 -0.326296 -0.195778 -0.260671
5 0.0632626 -0.07 -0.0624374 -0.18306 -0.276809
5 0.0632626 0.07 -0.379078 -0.233949 -0.319818
5 0.0294653 0.09 -0.2618 -0.223719 -0.310038
5 0.0294653 -0.09 -0.0512534 0.0119175 -0.362526
5 0.0507211 0.08 -0.358963 -0.260283 -0.354259
5 0.0507211 -0.08 -0.0122828 -0.0789372 -0.327868
5 0.0929523 -0.02 -0.035211 -0.102242 -0.0031741
5 0.0929523 0.02 -0.0773467 -0.0727586 -0.072394
5 0.0950895 -0.01 -0.0347317 -0.030732 0.0131796
5 0.0950895 0.01 -0.0489874 -0.0337404 -0.0367001
5 0.0908535 -0.03 -0.0246709 -0.17733 -0.0245755
5 0.0908535 0.03 -0.109754 -0.110808 -0.108081
5 0.0325754 0.09 -0.269208 -0.23459 -0.324999
5 0.0325754 -0.09 -0.03851 0.00408115 -0.345646
5 0.0826091 -0.05 -0.126186 -0.244772 -0.0935494
5 0.0826091 0.05 -0.238007 -0.166932 -0.192664
5 0.054221 0.08 -0.367581 -0.261697 -0.34852
5 0.054221 -0.08 -0.0179961 -0.0908506 -0.319837
5 0.0357425 0.09 -0.279821 -0.244453 -0.334752
5 0.0357425 -0.09 -0.0307313 -0.00411888 -0.340074
5 0.0669926 -0.07 -0.088603 -0.194079 -0.244254
5 0.0669925 0.07 -0.377452 -0.229523 -0.304385
5 0.0972268 0 -0.0393601 -0.0321079 -0.00539496
5 0.0766105 -0.06 -0.115545 -0.222913 -0.133517
5 0.0766105 0.06 -0.313877 -0.192936 -0.241811
5 0.0887548 -0.04 -0.0922587 -0.203506 -0.0344956
5 0.0887548 0.04 -0.162345 -0.139582 -0.140818
5 0.0389677 0.09 -0.292851 -0.253495 -0.341021
5 0.0389677 -0.09 -0.0243693 -0.0122771 -0.341435
5 0.0577851 -0.08 -0.0298377 -0.100913 -0.304368
5 0.0577851 0.08 -0.374987 -0.261692 -0.340262
5 0.0972268 -0.02 -0.0428123 -0.101341 0.0129338
5 0.0972268 0.02 -0.0650257 -0.0703176 -0.0574122
5 0.0422521 0.09 -0.307593 -0.261778 -0.345152
5 0.0422521 -0.09 -0.0180289 -0.0200782 -0.34474
5 0.0707909 -0.07 -0.114987 -0.200874 -0.202115
5 0.0707909 0.07 -0.372956 -0.224871 -0.287891
5 0.0950895 -0.03 -0.042351 -0.174626 -0.00386257
5 0.0950895 0.03 -0.0928691 -0.109735 -0.0925351
5 0.0994034 -0.01 -0.0321186 -0.0339133 0.023542
5 0.0994034 0.01 -0.0416007 -0.0300457 -0.0215961
5 0 0.1 0 0 0
5 0 -0.1 0 0 0
5 0.00256965 0.1 -0.323289 -0.00641997 0.0522975
5 0.00256965 -0.1 -0.0962184 0.00983916 -0.216347
5 0.0866939 -0.05 -0.154362 -0.237051 -0.0559866
5 0.0866939 0.05 -0.217155 -0.167434 -0.173565
5 0.00518642 0.1 -0.388411 -0.0179954 0.0439095
5 0.00518642 -0.1 -0.125887 0.0204614 -0.300284
5 0.00785119 0.1 -0.396485 -0.0343192 0.0168305
5 0.00785119 -0.1 -0.149065 0.0342109 -0.374452
5 0.0805853 -0.06 -0.139597 -0.222142 -0.0904157
5 0.0805853 0.06 -0.299285 -0.190691 -0.222754
5 0.0105648 0.1 -0.366088 -0.0540883 -0.0228805
5 0.0105648 -0.1 -0.164502 0.0475064 -0.432631
5 0.0614146 -0.08 -0.0463678 -0.108732 -0.280132
5 0.0614146 0.08 -0.381039 -0.260297 -0.329661
5 0.0133283 0.1 -0.32271 -0.0754878 -0.0683351
5 0.0133283 -0.1 -0.169544 0.0593847 -0.46864
5 0.0455967 0.09 -0.323338 -0.269195 -0.34772
5 0.0455967 -0.09 -0.0130217 -0.027522 -0.345818
5 0.0929523 -0.04 -0.111525 -0.197279 -0.00496842
5 0.0929523 0.04 -0.142578 -0.139994 -0.12391
5 0.0161424 0.1 -0.281726 -0.0975834 -0.113616
5 0.0161424 -0.1 -0.163185 0.0686227 -0.480793
5 0.10158 0 -0.0351944 -0.0312299 0.00711089
5 0.0190081 0.1 -0.250531 -0.1185 -0.157319
5 0.0190081 -0.1 -0.147362 0.0745957 -0.472594
5 0.0746589 -0.07 -0.139397 -0.203491 -0.15359
5 0.0746589 0.07 -0.365922 -0.220309 -0.270399
5 0.0219263 0.1 -0.230648 -0.137847 -0.199908
5 0.0219263 -0.1 -0.125651 0.0772939 -0.452102
5 0.0490027 0.09 -0.339241 -0.275465 -0.348655
5 0.0490027 -0.09 -0.0115393 -0.0337788 -0.34195
5 0.0248981 0.1 -0.221543 -0.155744 -0.238954
5 0.0248981 -0.1 -0.101794 0.076525 -0.426343
5 0.0651106 -0.08 -0.0653079 -0.114123 -0.24573
5 0.0651106 0.08 -0.385276 -0.257706 -0.31703
5 0.10158 -0.02 -0.0517881 -0.0968753 0.0293134
5 0.10158 0.02 -0.0538444 -0.0669311 -0.0432749
5 0.0908535 -0.05 -0.179298 -0.226053 -0.0159395
5 0.0908535 0.05 -0.195294 -0.168685 -0.155584
5 0.0846329 -0.06 -0.162094 -0.216978 -0.044433
5 0.0846329 0.06 -0.282237 -0.189221 -0.203747
5 0.0279244 0.1 -0.221163 -0.171433 -0.271233
5 0.0279244 -0.1 -0.0792363 0.0728131 -0.39946
5 0.0994034 -0.03 -0.0620516 -0.166091 0.0188831
5 0.0994034 0.03 -0.0766408 -0.107748 -0.0788116
5 0.0524711 0.09 -0.354151 -0.280274 -0.34749
5 0.0524711 -0.09 -0.0149523 -0.038569 -0.332296
5 0.103796 -0.01 -0.0313149 -0.0354219 0.0329121
5 0.103796 0.01 -0.0357419 -0.025538 -0.00640919
5 0.0310063 0.1 -0.22646 -0.185681 -0.294845
5 0.0310063 -0.1 -0.0605981 0.0671831 -0.375653
5 0.0972268 -0.04 -0.130088 -0.186171 0.0257195
5 0.0972268 0.04 -0.12248 -0.140457 -0.109022
5 0.0785979 -0.07 -0.159653 -0.201736 -0.0989396
5 0.0785979 0.07 -0.356878 -0.216109 -0.252254
5 0.0688745 -0.08 -0.0841801 -0.117155 -0.200842
5 0.0688745 0.08 -0.387171 -0.254209 -0.302788
5 0.0341446 0.1 -0.235206 -0.198998 -0.309891
5 0.0341446 -0.1 -0.0466825 0.0606599 -0.357894
5 0.056003 0.09 -0.367221 -0.283458 -0.343691
5 0.056003 -0.09 -0.023223 -0.0413801 -0.315073
5 0.106012 0 -0.0327495 -0.0289782 0.0196512
5 0.0373405 0.1 -0.246178 -0.211696 -0.318299
5 0.0373405 -0.1 -0.0363038 0.0541628 -0.346288
5 0.0887548 -0.06 -0.182965 -0.20854 0.00256121
5 0.0887548 0.06 -0.263036 -0.18868 -0.185148
5 0.0950895 -0.05 -0.199787 -0.211104 0.024516
5 0.0950895 0.05 -0.172387 -0.170749 -0.139432
5 0.106012 -0.02 -0.0610319 -0.0889059 0.0453473
5 0.106012 0.02 -0.0441872 -0.0623514 -0.0292882
5 0.040595 0.1 -0.2588 -0.223853 -0.322679
5 0.040595 -0.1 -0.0278838 0.0483239 -0.338653
5 0.0595999 -0.09 -0.0351214 -0.0420789 -0.289539
5 0.0595998 0.09 -0.378401 -0.284886 -0.337089
5 0.103796 -0.03 -0.0816712 -0.152072 0.0419234
5 0.103796 0.03 -0.0613898 -0.104391 -0.066277
5 0.0727073 -0.08 -0.101094 -0.118224 -0.147392
5 0.0727073 0.08 -0.386597 -0.250095 -0.287116
5 0.0826091 -0.07 -0.176378 -0.196533 -0.042218
5 0.0826091 0.07 -0.344755 -0.212552 -0.233722
5 0.108269 -0.01 -0.0322016 -0.0346262 0.0426493
5 0.108269 0.01 -0.031739 -0.0203252 0.00945815
5 0.10158 -0.04 -0.147083 -0.170621 0.0558398
5 0.10158 0.04 -0.101985 -0.140696 -0.0957409
5 0.0439092 0.1 -0.272932 -0.235562 -0.325001
5 0.0439092 -0.1 -0.0210167 0.0434373 -0.332085
5 0.00128482 0.11 -0.255668 0.00532192 0.0865445
5 0.00128483 -0.11 -0.0748326 0.00743326 -0.119323
5 0.0632626 -0.09 -0.0486804 -0.0410586 -0.254465
5 0.0632626 0.09 -0.388318 -0.284581 -0.327796
5 0.00387804 0.11 -0.350021 0.00389298 0.107219
5 0.00387803 -0.11 -0.106723 0.018639 -0.198031
5 0.0065188 0.11 -0.392344 0.00417043 0.0981559
5 0.0065188 -0.11 -0.131062 0.0382618 -0.274608
5 0.00920799 0.11 -0.381038 -0.00392424 0.0641564
5 0.00920799 -0.11 -0.150123 0.0594011 -0.347464
5 0.110526 0 -0.032088 -0.025223 0.033449
5 0.0472842 0.1 -0.288435 -0.24697 -0.326391
5 0.0472842 -0.1 -0.0164495 0.0398633 -0.323927
5 0.0929523 -0.06 -0.20215 -0.197621 0.0493007
5 0.0929523 0.06 -0.242105 -0.189235 -0.167378
5 0.0119466 0.11 -0.336188 -0.0185937 0.0156769
5 0.0119466 -0.11 -0.162958 0.0799221 -0.409469
5 0.0766105 -0.08 -0.115341 -0.117891 -0.0880455
5 0.0766105 0.08 -0.384027 -0.245651 -0.2702
5 0.0147354 0.11 -0.281609 -0.0368534 -0.035932
5 0.0147353 -0.11 -0.167588 0.099131 -0.44927
5 0.0994034 -0.05 -0.216171 -0.192857 0.0633542
5 0.0994034 0.05 -0.148016 -0.173596 -0.125305
5 0.0175752 0.11 -0.235743 -0.0587338 -0.0832673
5 0.0175752 -0.11 -0.16294 0.114146 -0.465003
5 0.0866939 -0.07 -0.191458 -0.189554 0.0140396
5 0.0866938 0.07 -0.329024 -0.209965 -0.21503
5 0.0204672 0.11 -0.203729 -0.077426 -0.131964
5 0.0204672 -0.11 -0.14989 0.124967 -0.462334
5 0.0507211 0.1 -0.304796 -0.257899 -0.327442
5 0.0507211 -0.1 -0.0151464 0.037916 -0.312291
5 0.0669926 -0.09 -0.0615167 -0.0382957 -0.207379
5 0.0669926 0.09 -0.396258 -0.282771 -0.316117
5 0.110526 -0.02 -0.0698871 -0.0778647 0.0615662
5 0.110526 0.02 -0.0366678 -0.056339 -0.0146169
5 0.108269 -0.03 -0.0989441 -0.133499 0.0639117
5 0.108269 0.03 -0.0478744 -0.0991492 -0.0539185
5 0.0234122 0.11 -0.185574 -0.098403 -0.181298
5 0.0234122 -0.11 -0.130725 0.130664 -0.451893
5 0.0264113 0.11 -0.180463 -0.116762 -0.225729
5 0.0264112 -0.11 -0.108425 0.131469 -0.433942
5 0.112824 -0.01 -0.0343878 -0.0316777 0.0552699
5 0.112824 0.01 -0.0300239 -0.014261 0.0264253
5 0.106012 -0.04 -0.161548 -0.151121 0.0840625
5 0.106012 0.04 -0.0813922 -0.140348 -0.08317
5 0.0805853 -0.08 -0.12821 -0.116921 -0.0275469
5 0.0805853 0.08 -0.379532 -0.241153 -0.252427
5 0.054221 0.1 -0.321266 -0.267852 -0.327869
5 0.054221 -0.1 -0.0174491 0.0377569 -0.295689
5 0.0294654 0.11 -0.183707 -0.133995 -0.260628
5 0.0294653 -0.11 -0.0861222 0.128765 -0.409988
5 0.0972268 -0.06 -0.219505 -0.183834 0.0947027
5 0.0972268 0.06 -0.219332 -0.191042 -0.150789
5 0.0707909 -0.09 -0.0716195 -0.0353726 -0.149602
5 0.0707909 0.09 -0.402019 -0.27967 -0.302755
5 0.0908535 -0.07 -0.206749 -0.181499 0.0681494
5 0.0908535 0.07 -0.310662 -0.208637 -0.196406
5 0.0325754 0.11 -0.191125 -0.150422 -0.283717
5 0.0325754 -0.11 -0.0665035 0.123967 -0.384446
5 0.115123 0 -0.0331716 -0.0199346 0.0492886
5 0.103796 -0.05 -0.228443 -0.171455 0.099211
5 0.103796 0.05 -0.121884 -0.177051 -0.112564