# kMean  POINT_DATA 63140
# x  y  z  kMean
0 0.1 0 0.00375
0 0.1 -0.0179898 0.00375
0 0.1 0.0179898 0.00375
0.0363518 0.1 0.0179898 0.00374802
0.0363518 0.1 -0.0179898 0.00374802
0 0.1 -0.0570102 0.00375
0 0.1 0.0570102 0.00375
0.0363518 0.1 0.0570102 0.00374802
0.0363518 0.1 -0.0570102 0.00374802
0 0.1 -0.075 0.00375
0 0.1 0.075 0.00375
0.075776 0.1 -0.0375 0.00374562
0.075776 0.1 0.0375 0.00374562
0 0.1 -0.0929898 0.00375
0 0.1 0.0929898 0.00375
0.0363518 0.1 -0.0929898 0.00374822
0.0363518 0.1 0.0929898 0.00374823
0 0.1 -0.13201 0.00375
0 0.1 0.13201 0.00375
0.075776 0.1 -0.1125 0.00374605
0.075776 0.1 0.1125 0.00374606
0.0363518 0.1 -0.13201 0.00374822
0.0363518 0.1 0.13201 0.00374823
0 0.1 -0.15 0.00375
0 0.1 0.15 0.00375
0.150379 0.1 -2.22623e-17 0.0037399
0 0.1 -0.16799 0.00375
0 0.1 0.16799 0.00375
0.150379 0.1 -0.075 0.00374034
0.150379 0.1 0.075 0.00374035
0.0363518 0.1 -0.16799 0.00374851
0.0363518 0.1 0.16799 0.00374851
0.075776 0.1 -0.1875 0.00374664
0.075776 0.1 0.1875 0.00374665
0 0.1 -0.20701 0.00375
0 0.1 0.20701 0.00375
0.0363518 0.1 -0.20701 0.00374851
0.0363518 0.1 0.20701 0.00374851
0.150379 0.1 -0.15 0.00374125
0.150379 0.1 0.15 0.00374127
0.219993 0.1 -0.0375 0.00373444
0.219993 0.1 0.0375 0.00373445
0 0.1 -0.225 0.00375
0 0.1 0.225 0.00375
0 0.1 -0.24299 0.00375
0 0.1 0.24299 0.00375
0.0363518 0.1 0.24299 0.00374879
0.0363518 0.1 -0.24299 0.00374878
0.219993 0.1 -0.1125 0.00373575
0.219993 0.1 0.1125 0.00373577
0.150379 0.1 -0.225 0.00374214
0.150379 0.1 0.225 0.00374216
0.075776 0.1 -0.2625 0.0037472
0.075776 0.1 0.2625 0.00374721
0 0.1 -0.28201 0.00375
0 0.1 0.28201 0.00375
0.0363518 0.1 -0.28201 0.00374878
0.0363518 0.1 0.28201 0.00374879
0.287374 0.1 -2.89121e-19 0.00372821
0.219992 0.1 0.1875 0.00373705
0.219992 0.1 -0.1875 0.00373703
0.287374 0.1 -0.075 0.0037289
0.287374 0.1 0.075 0.00372891
0 0.1 -0.3 0.00375
0 0.1 0.3 0.00375
0 0.1 0.31799 0.00375
0 0.1 -0.31799 0.00375
0.0363518 0.1 -0.31799 0.00374902
0.0363518 0.1 0.31799 0.00374903
0.287374 0.1 0.15 0.00373036
0.287374 0.1 -0.15 0.00373033
0.150379 0.1 -0.3 0.00374298
0.150379 0.1 0.3 0.003743
0.219993 0.1 0.2625 0.00373816
0.219993 0.1 -0.2625 0.00373814
0.075776 0.1 -0.3375 0.0037477
0.075776 0.1 0.3375 0.00374771
0.350249 0.1 -0.0375 0.00372222
0.350249 0.1 0.0375 0.00372223
0 0.1 -0.35701 0.00375
0 0.1 0.35701 0.00375
0.0363518 0.1 -0.35701 0.00374902
0.0363518 0.1 0.35701 0.00374903
0.287374 0.1 -0.225 0.00373171
0.287374 0.1 0.225 0.00373174
0.350249 0.1 -0.1125 0.00372368
0.350249 0.1 0.1125 0.0037237
0 0.1 -0.375 0.00375
0 0.1 0.375 0.00375
0 0.1 -0.39299 0.00375
0 0.1 0.39299 0.00375
0.0363518 0.1 -0.39299 0.00374928
0.0363518 0.1 0.39299 0.00374928
0.350249 0.1 -0.1875 0.00372537
0.350249 0.1 0.1875 0.0037254
0.219992 0.1 -0.3375 0.00373929
0.219992 0.1 0.3375 0.00373931
0.150379 0.1 0.375 0.00374369
0.150379 0.1 -0.375 0.00374368
0.411108 0.1 4.33681e-19 0.00371785
0.287374 0.1 -0.3 0.00373295
0.287374 0.1 0.3 0.00373298
0.411108 0.1 -0.075 0.00371854
0.411108 0.1 0.075 0.00371856
0.075776 0.1 -0.4125 0.00374822
0.075776 0.1 0.4125 0.00374823
0 0.1 0.43201 0.00375
0 0.1 -0.43201 0.00375
0.0363518 0.1 0.43201 0.00374928
0.0363518 0.1 -0.43201 0.00374928
0.411108 0.1 -0.15 0.00372009
0.411108 0.1 0.15 0.00372012
0.350249 0.1 -0.2625 0.00372678
0.350249 0.1 0.2625 0.00372682
0 0.1 -0.45 0.00375
0 0.1 0.45 0.00375
0.219992 0.1 0.4125 0.00373989
0.219992 0.1 -0.4125 0.00373988
0 0.1 -0.46799 0.00375
0 0.1 0.46799 0.00375
0.411108 0.1 -0.225 0.00372166
0.411108 0.1 0.225 0.0037217
0.467897 0.1 -0.0375 0.00371362
0.467897 0.1 0.0375 0.00371362
0.0363518 0.1 0.46799 0.00374955
0.0363518 0.1 -0.46799 0.00374954
0.287374 0.1 -0.375 0.00373392
0.287374 0.1 0.375 0.00373393
0.150379 0.1 0.45 0.00374423
0.150379 0.1 -0.45 0.00374421
0.467897 0.1 0.1125 0.00371498
0.467897 0.1 -0.1125 0.00371495
0.350249 0.1 -0.3375 0.00372804
0.350249 0.1 0.3375 0.00372807
0.075776 0.1 -0.4875 0.00374877
0.075776 0.1 0.4875 0.00374879
0.467897 0.1 0.1875 0.00371669
0.467897 0.1 -0.1875 0.00371666
0 0.1 -0.50701 0.00375
0 0.1 0.50701 0.00375
0.0363518 0.1 -0.50701 0.00374954
0.0363518 0.1 0.50701 0.00374955
0.411108 0.1 0.3 0.00372303
0.411108 0.1 -0.3 0.003723
0.522865 0.1 1.41031e-17 0.0037116
0 0.1 -0.525 0.00375
0 0.1 0.525 0.00375
0.522865 0.1 -0.075 0.00371221
0.522865 0.1 0.075 0.00371222
0.287374 0.1 0.45 0.00373458
0.287374 0.1 -0.45 0.00373456
0.219992 0.1 0.4875 0.00374039
0.219992 0.1 -0.4875 0.00374037
0.467897 0.1 -0.2625 0.00371813
0.467897 0.1 0.2625 0.00371817
0.350249 0.1 -0.4125 0.0037289
0.350249 0.1 0.4125 0.00372891
0 0.1 -0.54299 0.00375
0 0.1 0.54299 0.00375
0.522865 0.1 0.15 0.00371363
0.522865 0.1 -0.15 0.0037136
0.0363518 0.1 0.54299 0.00374983
0.0363518 0.1 -0.54299 0.00374983
0.150379 0.1 -0.525 0.00374484
0.150379 0.1 0.525 0.00374486
0.411108 0.1 -0.375 0.00372402
0.411108 0.1 0.375 0.00372404
0.075776 0.1 -0.5625 0.00374936
0.075776 0.1 0.5625 0.00374937
0.522865 0.1 -0.225 0.00371506
0.522865 0.1 0.225 0.0037151
0.574156 0.1 0.0375 0.0037096
0.574157 0.1 -0.0375 0.0037096
0.467897 0.1 -0.3375 0.00371933
0.467897 0.1 0.3375 0.00371936
0 0.1 -0.58201 0.00375
0 0.1 0.58201 0.00375
0.0363518 0.1 -0.58201 0.00374983
0.0363518 0.1 0.58201 0.00374983
0.574157 0.1 -0.1125 0.00371071
0.574157 0.1 0.1125 0.00371073
0.287374 0.1 -0.525 0.00373527
0.287374 0.1 0.525 0.0037353
0 0.1 -0.6 0.00375
0 0.1 0.6 0.00375
0.350249 0.1 0.4875 0.00372956
0.350249 0.1 -0.4875 0.00372954
0.522865 0.1 -0.3 0.00371625
0.522865 0.1 0.3 0.00371628
0.219992 0.1 -0.5625 0.00374125
0.219992 0.1 0.5625 0.00374128
0.574156 0.1 -0.1875 0.00371214
0.574156 0.1 0.1875 0.00371218
0.411108 0.1 0.45 0.00372471
0.411108 0.1 -0.45 0.00372469
0 0.1 -0.61799 0.00375
0 0.1 0.61799 0.00375
0.150379 0.1 -0.6 0.00374558
0.150379 0.1 0.6 0.0037456
0.0363518 0.1 -0.61799 0.00375011
0.0363518 0.1 0.61799 0.00375011
0.467897 0.1 -0.4125 0.00372008
0.467897 0.1 0.4125 0.0037201
0.623803 0.1 2.34188e-17 0.00370982
0.623803 0.1 0.075 0.00371031
0.623803 0.1 -0.075 0.0037103
0.574156 0.1 0.2625 0.00371342
0.574156 0.1 -0.2625 0.00371337
0.623803 0.1 0.15 0.00371143
0.623803 0.1 -0.15 0.0037114
0.075776 0.1 0.6375 0.00374995
0.075776 0.1 -0.6375 0.00374993
0.522865 0.1 -0.375 0.00371704
0.522865 0.1 0.375 0.00371706
0 0.1 0.65701 0.00375
0 0.1 -0.65701 0.00375
0.0363518 0.1 0.65701 0.00375011
0.0363518 0.1 -0.65701 0.00375011
0.350249 0.1 0.5625 0.00373039
0.350249 0.1 -0.5625 0.00373036
0.623803 0.1 0.225 0.00371255
0.623803 0.1 -0.225 0.00371251
0.287374 0.1 -0.6 0.00373614
0.287374 0.1 0.6 0.00373617
0.574157 0.1 -0.3375 0.00371424
0.574157 0.1 0.3375 0.00371427
0.411108 0.1 0.525 0.00372533
0.411108 0.1 -0.525 0.0037253
0.67013 0.1 0.0375 0.00370995
0.67013 0.1 -0.0375 0.00370995
0.219992 0.1 -0.6375 0.00374214
0.219993 0.1 0.6375 0.00374216
0 0.1 -0.675 0.00375
0 0.1 0.675 0.00375
0.467897 0.1 -0.4875 0.00372055
0.467897 0.1 0.4875 0.00372057
0.67013 0.1 -0.1125 0.00371078
0.67013 0.1 0.1125 0.00371081
0.522865 0.1 0.45 0.00371743
0.522865 0.1 -0.45 0.00371741
0.150379 0.1 0.675 0.00374629
0.150379 0.1 -0.675 0.00374627
0.623803 0.1 0.3 0.00371336
0.623803 0.1 -0.3 0.00371332
0 0.1 -0.69299 0.00375
0 0.1 0.69299 0.00375
0.0363518 0.1 -0.69299 0.00375036
0.0363518 0.1 0.69299 0.00375036
0.67013 0.1 -0.1875 0.00371182
0.67013 0.1 0.1875 0.00371186
0.574156 0.1 0.4125 0.00371461
0.574157 0.1 -0.4125 0.00371459
0.714971 0.1 -2.8382e-17 0.0037122
0.075776 0.1 -0.7125 0.00375045
0.075776 0.1 0.7125 0.00375047
0.714971 0.1 -0.075 0.00371254
0.714971 0.1 0.075 0.00371256
0.67013 0.1 0.2625 0.00371262
0.67013 0.1 -0.2625 0.00371257
0.411108 0.1 -0.6 0.003726
0.411108 0.1 0.6 0.00372604
0.350249 0.1 0.6375 0.00373128
0.350249 0.1 -0.6375 0.00373124
0.623803 0.1 0.375 0.00371367
0.623803 0.1 -0.375 0.00371364
0.714971 0.1 -0.15 0.00371328
0.714971 0.1 0.15 0.00371331
0.467897 0.1 -0.5625 0.00372107
0.467897 0.1 0.5625 0.0037211
0 0.1 -0.73201 0.00375
0 0.1 0.73201 0.00375
0.0363518 0.1 0.73201 0.00375036
0.0363518 0.1 -0.73201 0.00375036
0.287374 0.1 -0.675 0.00373698
0.287374 0.1 0.675 0.00373701
0.522865 0.1 -0.525 0.00371759
0.522865 0.1 0.525 0.00371762
0.219993 0.1 -0.7125 0.00374291
0.219992 0.1 0.7125 0.00374294
0.714971 0.1 -0.225 0.00371389
0.714971 0.1 0.225 0.00371395
0 0.1 0.75 0.00375
0 0.1 -0.75 0.00375
0.67013 0.1 -0.3375 0.00371298
0.67013 0.1 0.3375 0.00371301
0.574156 0.1 -0.4875 0.00371453
0.574157 0.1 0.4875 0.00371455
0.756813 0.1 0.0375 0.00371428
0.756814 0.1 -0.0375 0.00371428
0.150379 0.1 0.746002 0.00374694
0.150379 0.1 -0.75 0.00374688
0.756813 0.1 -0.1125 0.00371481
0.756813 0.1 0.1125 0.00371483
0 0.1 0.76799 0.00375
0 0.1 -0.76799 0.00375
0.0363518 0.1 0.76799 0.00375059
0.0363518 0.1 -0.76799 0.00375058
0.623803 0.1 -0.45 0.00371342
0.623803 0.1 0.45 0.00371344
0.714971 0.1 -0.3 0.00371414
0.714971 0.1 0.3 0.00371419
0.756814 0.1 -0.1875 0.00371535
0.756814 0.1 0.1875 0.0037154
0.67013 0.1 -0.4125 0.00371265
0.67013 0.1 0.4125 0.00371267
0.411108 0.1 0.675 0.00372674
0.411108 0.1 -0.675 0.00372671
0.467897 0.1 0.6375 0.00372169
0.467897 0.1 -0.6375 0.00372166
0.075776 0.1 0.7875 0.00375093
0.075776 0.1 -0.7875 0.00375091
0.350249 0.1 -0.7125 0.00373206
0.350249 0.1 0.7125 0.0037321
0.522865 0.1 -0.6 0.00371777
0.522865 0.1 0.6 0.0037178
0.797314 0.1 -3.59473e-17 0.00371832
0.287374 0.1 0.746002 0.00373782
0.797314 0.1 -0.075 0.0037185
0.797314 0.1 0.075 0.00371852
0.756814 0.1 -0.2625 0.00371551
0.756814 0.1 0.2625 0.00371558
0.287374 0.1 -0.75 0.00373773
0.574156 0.1 -0.5625 0.00371434
0.574156 0.1 0.5625 0.00371437
0 0.1 0.80701 0.00375
0 0.1 -0.80701 0.00375
0.714971 0.1 -0.375 0.0037138
0.714971 0.1 0.375 0.00371384
0.0363518 0.1 0.80701 0.00375059
0.0363518 0.1 -0.80701 0.00375058
0.797314 0.1 -0.15 0.00371883
0.797314 0.1 0.15 0.00371887
0.623803 0.1 -0.525 0.00371288
0.623803 0.1 0.525 0.0037129
0.219992 0.1 0.7875 0.00374362
0.219992 0.1 -0.7875 0.00374359
0.149792 0.1 0.80701 0.00374733
0 0.1 0.825 0.00375
0 0.1 -0.825 0.00375
0.797314 0.1 -0.225 0.00371888
0.797314 0.1 0.225 0.00371894
0.756813 0.1 -0.3375 0.00371521
0.756813 0.1 0.3375 0.00371526
0.67013 0.1 0.4875 0.00371185
0.67013 0.1 -0.4875 0.00371183
0.835106 0.1 -0.0375 0.00372211
0.835106 0.1 0.0375 0.00372211
0.150379 0.1 -0.825 0.00374741
0.835106 0.1 -0.1125 0.00372233
0.835106 0.1 0.1125 0.00372235
0 0.1 -0.84299 0.00375
0 0.1 0.84299 0.00375
0.0363518 0.1 -0.84299 0.00375077
0.0363518 0.1 0.84299 0.00375078
0.714971 0.1 -0.45 0.0037128
0.714971 0.1 0.45 0.00371282
0.411108 0.1 0.746002 0.00372742
0.797314 0.1 -0.3 0.00371842
0.797314 0.1 0.3 0.00371849
0.467897 0.1 -0.7125 0.00372219
0.467897 0.1 0.7125 0.00372223
0.522865 0.1 0.675 0.00371798
0.522865 0.1 -0.675 0.00371795
0.411108 0.1 -0.75 0.00372732
0.835106 0.1 -0.1875 0.00372234
0.835107 0.1 0.1875 0.0037224
0.286844 0.1 0.80701 0.00373828
0.574156 0.1 0.6375 0.00371419
0.574157 0.1 -0.6375 0.00371416
0.350249 0.1 -0.7875 0.00373278
0.350249 0.1 0.7875 0.00373282
0.756813 0.1 -0.4125 0.00371411
0.756814 0.1 0.4125 0.00371414
0.623803 0.1 -0.6 0.00371222
0.623803 0.1 0.6 0.00371225
0.075776 0.1 0.8625 0.00375133
0.075776 0.1 -0.8625 0.00375131
0.871687 0.1 -3.2767e-18 0.0037276
0.287374 0.1 -0.825 0.00373837
0.871687 0.1 -0.075 0.00372763
0.871687 0.1 0.075 0.00372765
0.67013 0.1 -0.5625 0.00371076
0.67013 0.1 0.5625 0.00371079
0.835106 0.1 0.2625 0.00372192
0.835106 0.1 -0.2625 0.00372184
0.797314 0.1 -0.375 0.00371731
0.797314 0.1 0.375 0.00371735
0 0.1 -0.88201 0.00375
0 0.1 0.88201 0.00375
0.0363518 0.1 0.88201 0.00375078
0.0363518 0.1 -0.88201 0.00375077
0.871687 0.1 0.15 0.00372757
0.871687 0.1 -0.15 0.00372752
0.714971 0.1 0.525 0.00371137
0.714971 0.1 -0.525 0.00371135
0.219993 0.1 0.8625 0.00374419
0.219992 0.1 -0.8625 0.00374416
0 0.1 0.9 0.00375
0 0.1 -0.9 0.00375
0.756813 0.1 0.4875 0.00371238
0.756814 0.1 -0.4875 0.00371236
0.871687 0.1 0.225 0.00372703
0.871687 0.1 -0.225 0.00372696
0.835106 0.1 -0.3375 0.0037207
0.835106 0.1 0.3375 0.00372076
0.41063 0.1 0.80701 0.00372775
0.90582 0.1 -0.0375 0.00373279
0.905821 0.1 0.0375 0.00373279
0.522865 0.1 0.746002 0.00371816
0.150379 0.1 0.9 0.00374787
0.90582 0.1 0.1125 0.00373272
0.905821 0.1 -0.1125 0.00373269
0.522865 0.1 -0.75 0.00371805
0.574156 0.1 0.7125 0.003714
0.574156 0.1 -0.7125 0.00371396
0.797314 0.1 -0.45 0.00371541
0.797314 0.1 0.45 0.00371544
0.467897 0.1 -0.7875 0.00372256
0.467897 0.1 0.7875 0.0037226
0.150379 0.1 -0.903998 0.00374774
0 0.1 0.91799 0.00375
0 0.1 -0.91799 0.00375
0.0363518 0.1 0.91799 0.00375093
0.0363518 0.1 -0.91799 0.00375092
0.623803 0.1 0.675 0.00371156
0.623803 0.1 -0.675 0.00371153
0.411108 0.1 -0.825 0.00372778
0.871687 0.1 0.3 0.00372581
0.871687 0.1 -0.3 0.00372574
0.67013 0.1 -0.6375 0.00370961
0.67013 0.1 0.6375 0.00370964
0.90582 0.1 -0.1875 0.00373215
0.90582 0.1 0.1875 0.00373221
0.350249 0.1 0.8625 0.0037334
0.350249 0.1 -0.8625 0.00373337
0.835106 0.1 -0.4125 0.00371879
0.835106 0.1 0.4125 0.00371884
0.714971 0.1 -0.6 0.00370968
0.714971 0.1 0.6 0.00370971
0.93886 0.1 -1.15648e-17 0.0037397
0.075776 0.1 0.9375 0.00375164
0.075776 0.1 -0.9375 0.00375162
0.93886 0.1 0.075 0.00373959
0.93886 0.1 -0.075 0.00373957
0.756813 0.1 0.5625 0.00371026
0.756814 0.1 -0.5625 0.00371023
0.905821 0.1 -0.2625 0.00373096
0.905821 0.1 0.2625 0.00373102
0.287374 0.1 0.9 0.00373891
0.287374 0.1 -0.903998 0.00373873
0.871687 0.1 0.375 0.00372383
0.871687 0.1 -0.375 0.00372377
0.93886 0.1 -0.15 0.00373905
0.93886 0.1 0.15 0.0037391
0.797314 0.1 0.525 0.00371294
0.797314 0.1 -0.525 0.0037129
0 0.1 0.95701 0.00375
0 0.1 -0.95701 0.00375
0.0363518 0.1 0.95701 0.00375093
0.0363518 0.1 -0.95701 0.00375092
0.522433 0.1 0.80701 0.00371811
0.219992 0.1 0.9375 0.00374465
0.219992 0.1 -0.9375 0.00374463
0.93886 0.1 0.225 0.00373795
0.93886 0.1 -0.225 0.00373789
0.90582 0.1 0.3375 0.00372898
0.905821 0.1 -0.3375 0.0037289
0.835106 0.1 -0.4875 0.00371599
0.835107 0.1 0.4875 0.00371603
0.969689 0.1 -0.0375 0.00374626
0.969689 0.1 0.0375 0.00374626
0.61613 0.1 0.75 0.00371082
0.574156 0.1 -0.7875 0.00371368
0.574156 0.1 0.7875 0.00371372
0 0.1 0.975 0.00375
0 0.1 -0.975 0.00375
0.623803 0.1 -0.75 0.00371078
0.969689 0.1 -0.1125 0.00374587
0.969689 0.1 0.1125 0.0037459
0.522865 0.1 -0.825 0.00371801
0.67013 0.1 0.7125 0.00370843
0.67013 0.1 -0.7125 0.0037084
0.871687 0.1 -0.45 0.00372091
0.871687 0.1 0.45 0.00372096
0.467897 0.1 0.8625 0.0037228
0.467897 0.1 -0.8625 0.00372275
0.714971 0.1 -0.675 0.0037079
0.714971 0.1 0.675 0.00370794
0.93886 0.1 -0.3 0.0037359
0.93886 0.1 0.3 0.00373597
0.150379 0.1 0.975 0.0037482
0.150379 0.1 -0.975 0.00374819
0.969689 0.1 -0.1875 0.00374482
0.969689 0.1 0.1875 0.00374488
0.411108 0.1 0.9 0.00372814
0.756813 0.1 0.6375 0.00370796
0.756814 0.1 -0.6375 0.00370793
0.990306 0.1 -2.19732e-17 0.00374772
0 0.1 0.99299 0.00375
0 0.1 -0.99299 0.00375
0.411108 0.1 -0.903998 0.00372797
0.990306 0.1 -0.075 0.00374749
0.990306 0.1 0.075 0.00374751
0.0363518 0.1 0.99299 0.00375104
0.0363518 0.1 -0.99299 0.00375103
0.90582 0.1 -0.4125 0.00372616
0.905821 0.1 0.4125 0.00372622
0.797314 0.1 -0.6 0.00371006
0.797314 0.1 0.6 0.0037101
0.350249 0.1 0.9375 0.00373385
0.350249 0.1 -0.9375 0.00373383
0.990306 0.1 0.15 0.00374673
0.990306 0.1 -0.15 0.00374668
0.969689 0.1 -0.2625 0.00374298
0.969689 0.1 0.2625 0.00374304
0.835106 0.1 -0.5625 0.00371269
0.835106 0.1 0.5625 0.00371272
0.93886 0.1 -0.375 0.00373306
0.93886 0.1 0.375 0.00373314
0.075776 0.1 1.0125 0.00375187
0.075776 0.1 -1.0125 0.00375186
0.990306 0.1 -0.225 0.0037451
0.990306 0.1 0.225 0.00374516
0.287374 0.1 0.975 0.0037393
0.287374 0.1 -0.975 0.00373928
0.871687 0.1 -0.525 0.00371725
0.871687 0.1 0.525 0.00371729
1.02149 0.1 -0.0369628 0.0037555
1.02149 0.1 0.0369628 0.00375551
0.969689 0.1 -0.3375 0.00374011
0.969689 0.1 0.3375 0.0037402
1.02149 0.1 -0.110888 0.0037549
1.02149 0.1 0.110888 0.00375494
0.90582 0.1 0.4875 0.00372226
0.90582 0.1 -0.4875 0.0037222
0.623803 0.1 0.819003 0.00370976
0 0.1 1.03201 0.00375
0 0.1 -1.03201 0.00375
0.0363518 0.1 1.03201 0.00375104
0.0363518 0.1 -1.03201 0.00375103
0.67013 0.1 -0.7875 0.00370714
0.67013 0.1 0.7875 0.00370718
0.623803 0.1 -0.825 0.00370996
0.990306 0.1 -0.3 0.00374259
0.990306 0.1 0.3 0.00374266
0.219992 0.1 -1.0125 0.00374496
0.219993 0.1 1.0125 0.00374498
0.574156 0.1 0.8625 0.00371333
0.574157 0.1 -0.8625 0.00371329
0.714971 0.1 -0.75 0.00370605
0.714971 0.1 0.75 0.00370609
1.02149 0.1 0.184814 0.00375358
1.02149 0.1 -0.184814 0.0037535
0.756814 0.1 -0.7125 0.00370553
0.756814 0.1 0.7125 0.00370557
0.522865 0.1 0.9 0.00371789
0.93886 0.1 -0.45 0.00372918
0.93886 0.1 0.45 0.00372925
1.04168 0.1 0 0.00376069
1.04168 0.1 -0.0729162 0.00376036
1.04168 0.1 0.0729162 0.00376038
0.522865 0.1 -0.903998 0.00371778
0.797314 0.1 -0.675 0.00370706
0.797314 0.1 0.675 0.0037071
0.467897 0.1 0.9375 0.00372287
0.467897 0.1 -0.9375 0.00372284
0 0.1 1.05 0.00375
0 0.1 -1.05 0.00375
0.835106 0.1 -0.6375 0.0037091
0.835106 0.1 0.6375 0.00370915
1.04168 0.1 -0.145832 0.0037593
1.04168 0.1 0.145832 0.00375935
1.02149 0.1 -0.25874 0.00375124
1.02149 0.1 0.25874 0.00375131
0.969689 0.1 -0.4125 0.00373645
0.969689 0.1 0.4125 0.00373653
0.411108 0.1 0.975 0.00372833
0.411108 0.1 -0.975 0.0037283
0.871687 0.1 -0.6 0.00371312
0.871687 0.1 0.6 0.00371317
1.0579 0.1 -0.0360525 0.00376535
1.0579 0.1 0.0360525 0.00376536
0.990306 0.1 -0.375 0.00373914
0.990306 0.1 0.375 0.00373922
0.150379 0.1 1.05 0.00374844
0.150379 0.1 -1.05 0.00374843
1.0579 0.1 0.108157 0.0037647
1.0579 0.1 -0.108157 0.00376464
1.04168 0.1 -0.218749 0.00375738
1.04168 0.1 0.218749 0.00375744
0.90582 0.1 -0.5625 0.00371765
0.90582 0.1 0.5625 0.00371769
0 0.1 -1.06799 0.00375
0 0.1 1.06799 0.00375
0.0363518 0.1 -1.06799 0.00375111
0.0363518 0.1 1.06799 0.00375112
0.350249 0.1 1.0125 0.00373417
0.350249 0.1 -1.0125 0.00373414
1.0579 0.1 -0.180262 0.00376309
1.0579 0.1 0.180262 0.00376318
1.02149 0.1 -0.332665 0.00374791
1.02149 0.1 0.332665 0.003748
0.93886 0.1 -0.525 0.00372425
0.93886 0.1 0.525 0.00372431
1.08012 0.1 5.49329e-18 0.00377186
1.04168 0.1 -0.291665 0.00375447
1.04168 0.1 0.291665 0.00375453
1.08012 0.1 0.0709941 0.00377151
1.08012 0.1 -0.0709941 0.00377148
0.969689 0.1 -0.4875 0.00373133
0.96969 0.1 0.4875 0.00373139
1.0579 0.1 0.252367 0.00376073
1.0579 0.1 -0.252367 0.00376063
0.990306 0.1 -0.45 0.00373452
0.990306 0.1 0.45 0.00373459
0.287374 0.1 -1.05 0.00373954
0.287374 0.1 1.05 0.00373957
0.714971 0.1 0.821002 0.00370428
1.08012 0.1 -0.141988 0.0037703
1.08012 0.1 0.141988 0.00377036
0.075776 0.1 1.0875 0.00375204
0.075776 0.1 -1.0875 0.00375202
0.714971 0.1 -0.825 0.00370414
0.756813 0.1 -0.7875 0.00370305
0.756814 0.1 0.7875 0.00370309
0.67013 0.1 -0.8625 0.00370581
0.67013 0.1 0.8625 0.00370585
0.797314 0.1 -0.75 0.00370394
0.797314 0.1 0.75 0.00370399
0.623803 0.1 0.9 0.00370908
0.835106 0.1 -0.7125 0.00370539
0.835106 0.1 0.7125 0.00370545
0.623803 0.1 -0.903998 0.00370905
0.574156 0.1 0.9375 0.00371285
0.574156 0.1 -0.9375 0.00371281
1.02149 0.1 -0.406591 0.00374362
1.02149 0.1 0.406591 0.00374373
1.08012 0.1 -0.212982 0.00376822
1.08012 0.1 0.212982 0.0037683
1.10076 0.1 -0.0349809 0.00377802
1.10076 0.1 0.0349809 0.00377802
0.871687 0.1 -0.675 0.00370872
0.871687 0.1 0.675 0.00370877
1.04168 0.1 -0.364581 0.00375053
1.04168 0.1 0.364581 0.00375061
1.10076 0.1 -0.104943 0.00377723
1.10076 0.1 0.104943 0.00377727
0.522865 0.1 0.975 0.00371763
0.522865 0.1 -0.975 0.0037176
1.0579 0.1 -0.324472 0.00375709
1.0579 0.1 0.324472 0.00375721
0 0.1 -1.10701 0.00375
0 0.1 1.10701 0.00375
0.0363518 0.1 1.10701 0.00375112
0.0363518 0.1 -1.10701 0.00375111
0.90582 0.1 0.6375 0.00371268
0.905821 0.1 -0.6375 0.00371263
0.219992 0.1 1.0875 0.0037452
0.219992 0.1 -1.0875 0.00374518
0.93886 0.1 0.6 0.00371877
0.93886 0.1 -0.6 0.00371872
1.10076 0.1 -0.174905 0.00377554
1.10076 0.1 0.174905 0.00377561
0.467897 0.1 1.0125 0.00372283
0.467897 0.1 -1.0125 0.00372279
1.08012 0.1 -0.283976 0.00376514
1.08012 0.1 0.283976 0.00376522
1.11928 0.1 3.93204e-18 0.00378367
0.990306 0.1 -0.525 0.00372865
0.990306 0.1 0.525 0.00372871
0.96969 0.1 -0.5625 0.00372527
0.969689 0.1 0.5625 0.00372532
1.11928 0.1 -0.0690357 0.00378326
1.11928 0.1 0.0690357 0.00378328
0 0.1 1.125 0.00375
0 0.1 -1.125 0.00375
0.411108 0.1 -1.05 0.00372838
0.411108 0.1 1.05 0.00372841
1.10076 0.1 0.244866 0.00377298
1.10076 0.1 -0.244866 0.00377293
1.11928 0.1 -0.138072 0.00378199
1.11928 0.1 0.138072 0.00378204
1.02149 0.1 0.480517 0.003738
1.02149 0.1 -0.480517 0.0037379
1.0579 0.1 -0.396577 0.00375251
1.0579 0.1 0.396577 0.00375267
1.04168 0.1 -0.437497 0.00374538
1.04168 0.1 0.437497 0.00374546
0.150379 0.1 1.125 0.00374859
0.150379 0.1 -1.125 0.00374858
0.714971 0.1 0.88201 0.00370163
1.08012 0.1 0.354971 0.00376108
1.08012 0.1 -0.354971 0.00376098
1.11928 0.1 -0.207107 0.0037798
1.11928 0.1 0.207107 0.00377987
0.350249 0.1 -1.0875 0.00373432
0.350249 0.1 1.0875 0.00373435
0 0.1 1.14299 0.00375
0 0.1 -1.14299 0.00375
0.0363518 0.1 1.14299 0.00375117
0.0363518 0.1 -1.14299 0.00375116
1.14316 0.1 -0.0339211 0.00379139
1.14316 0.1 0.0339211 0.0037914
0.797314 0.1 0.821002 0.00370096
1.10076 0.1 -0.314829 0.00376924
1.10076 0.1 0.314829 0.00376928
0.797314 0.1 -0.825 0.00370073
0.756814 0.1 -0.8625 0.00370052
0.756814 0.1 0.8625 0.00370056
1.14316 0.1 -0.101763 0.00379052
1.14316 0.1 0.101763 0.00379059
0.835106 0.1 -0.7875 0.00370156
0.835106 0.1 0.7875 0.00370162
0.871687 0.1 -0.75 0.00370414
0.871687 0.1 0.75 0.0037042
0.67013 0.1 0.9375 0.00370441
0.67013 0.1 -0.9375 0.00370438
0.90582 0.1 -0.7125 0.00370737
0.905821 0.1 0.7125 0.00370743
0.714971 0.1 -0.903998 0.00370231
1.11928 0.1 0.276143 0.00377667
1.11928 0.1 -0.276143 0.00377661
1.14316 0.1 0.169605 0.00378885
1.14316 0.1 -0.169605 0.00378875
0.93886 0.1 -0.675 0.00371286
0.93886 0.1 0.675 0.00371292
1.15704 0.1 0 0.00379567
1.0579 0.1 0.468682 0.00374668
1.0579 0.1 -0.468682 0.00374649
0.623803 0.1 0.975 0.0037081
0.623803 0.1 -0.975 0.00370806
0.990306 0.1 0.6 0.00372215
0.990306 0.1 -0.6 0.00372209
1.15704 0.1 -0.0671479 0.00379524
1.15704 0.1 0.0671479 0.00379526
1.04168 0.1 -0.510414 0.00373881
1.04168 0.1 0.510414 0.00373888
0.969689 0.1 -0.6375 0.00371882
0.969689 0.1 0.6375 0.00371887
1.08012 0.1 0.425965 0.00375571
1.08012 0.1 -0.425965 0.00375558
0.287374 0.1 -1.125 0.00373968
0.287374 0.1 1.125 0.0037397
1.02149 0.1 -0.554443 0.00373096
1.02149 0.1 0.554443 0.00373106
0.574156 0.1 1.0125 0.00371227
0.574156 0.1 -1.0125 0.00371223
1.15704 0.1 -0.134296 0.00379391
1.15704 0.1 0.134296 0.00379396
0.075776 0.1 1.1625 0.00375214
0.075776 0.1 -1.1625 0.00375213
1.10076 0.1 -0.384791 0.00376445
1.10076 0.1 0.384791 0.00376451
1.14316 0.1 -0.237448 0.00378603
1.14316 0.1 0.237448 0.00378615
1.11928 0.1 -0.345179 0.00377234
1.11928 0.1 0.345179 0.0037724
0.522865 0.1 1.05 0.00371727
0.522865 0.1 -1.05 0.00371724
1.15704 0.1 -0.201444 0.00379166
1.15704 0.1 0.201444 0.00379171
1.1744 0.1 -0.0331401 0.00380114
1.1744 0.1 0.0331401 0.00380114
1.1744 0.1 -0.0994202 0.00380026
1.1744 0.1 0.0994202 0.0038003
0 0.1 1.18201 0.00375
0 0.1 -1.18201 0.00375
0.0363518 0.1 1.18201 0.00375117
0.0363518 0.1 -1.18201 0.00375116
0.219992 0.1 1.1625 0.00374531
0.219993 0.1 -1.1625 0.00374528
1.14316 0.1 0.30529 0.00378238
1.14316 0.1 -0.30529 0.00378227
0.467897 0.1 1.0875 0.00372268
0.467897 0.1 -1.0875 0.00372266
1.1744 0.1 -0.1657 0.00379847
1.1744 0.1 0.1657 0.00379853
1.15704 0.1 -0.268592 0.00378843
1.15704 0.1 0.268592 0.00378845
1.0579 0.1 0.540787 0.0037393
1.0579 0.1 -0.540787 0.00373911
0.796996 0.1 0.88201 0.00369835
1.08012 0.1 -0.496959 0.0037487
1.08012 0.1 0.496959 0.00374884
1.10076 0.1 0.454752 0.00375833
1.10076 0.1 -0.454752 0.00375825
1.11928 0.1 -0.414214 0.0037668
1.11928 0.1 0.414214 0.0037669
1.04168 0.1 -0.58333 0.00373143
1.04168 0.1 0.58333 0.00373148
1.1744 0.1 -0.231981 0.00379576
1.1744 0.1 0.231981 0.00379581
0.871687 0.1 0.821002 0.00369977
0.411108 0.1 1.125 0.00372836
0.411108 0.1 -1.125 0.00372834
1.19808 0.1 1.73472e-17 0.00380965
0.990306 0.1 0.675 0.00371527
0.990306 0.1 -0.675 0.00371521
1.02149 0.1 0.628368 0.00372376
1.02149 0.1 -0.628368 0.00372367
1.19808 0.1 -0.0650961 0.00380919
1.19808 0.1 0.0650961 0.00380922
0 0.1 1.2 0.00375
0 0.1 -1.2 0.00375
0.871687 0.1 -0.825 0.00369948
0.905821 0.1 -0.7875 0.00370191
0.90582 0.1 0.7875 0.00370198
0.835106 0.1 -0.8625 0.00369761
0.835106 0.1 0.8625 0.00369766
0.93886 0.1 -0.75 0.00370683
0.93886 0.1 0.75 0.0037069
1.14316 0.1 -0.373132 0.00377736
1.14316 0.1 0.373132 0.00377751
0.969689 0.1 0.7125 0.00371222
0.969689 0.1 -0.7125 0.00371214
1.15704 0.1 -0.33574 0.00378411
1.15704 0.1 0.33574 0.00378412
0.756813 0.1 0.9375 0.00369797
0.756814 0.1 -0.9375 0.00369795
1.19808 0.1 0.130192 0.00380787
1.19808 0.1 -0.130192 0.00380782
0.797314 0.1 -0.903998 0.00369777
0.714971 0.1 0.975 0.0037002
0.714971 0.1 -0.975 0.00370017
0.150379 0.1 1.2 0.00374866
0.150379 0.1 -1.2 0.00374865
1.20938 0.1 -0.0322656 0.003813
1.20938 0.1 0.0322656 0.003813
1.1744 0.1 -0.298261 0.00379205
1.1744 0.1 0.298261 0.00379206
1.20938 0.1 -0.0967968 0.00381207
1.20938 0.1 0.0967968 0.00381212
1.19808 0.1 -0.195288 0.00380553
1.19808 0.1 0.195288 0.00380558
0.350249 0.1 1.1625 0.00373439
0.350249 0.1 -1.1625 0.00373437
0.67013 0.1 1.0125 0.00370302
0.67013 0.1 -1.0125 0.00370298
0 0.1 1.21799 0.00375
0 0.1 -1.21799 0.00375
0.0363518 0.1 -1.21799 0.00375119
0.0363518 0.1 1.21799 0.0037512
1.11928 0.1 -0.48325 0.00375975
1.11928 0.1 0.48325 0.00375987
1.10076 0.1 -0.524714 0.00375045
1.10076 0.1 0.524714 0.00375052
1.20938 0.1 0.161328 0.0038103
1.20938 0.1 -0.161328 0.00381023
1.08012 0.1 0.567953 0.00374104
1.08012 0.1 -0.567953 0.0037409
0.623803 0.1 1.05 0.00370709
0.623803 0.1 -1.05 0.00370706
1.0579 0.1 -0.612892 0.00373136
1.0579 0.1 0.612892 0.00373155
1.15704 0.1 -0.402888 0.00377854
1.15704 0.1 0.402888 0.00377858
1.14316 0.1 0.440974 0.00377128
1.14316 0.1 -0.440974 0.00377106
1.19808 0.1 -0.260384 0.00380229
1.19808 0.1 0.260384 0.00380231
1.2267 0.1 3.57064e-18 0.00381989
1.2267 0.1 -0.0636649 0.00381941
1.2267 0.1 0.0636649 0.00381944
1.1744 0.1 -0.364541 0.0037872
1.1744 0.1 0.364541 0.00378722
0.574156 0.1 1.0875 0.00371159
0.574156 0.1 -1.0875 0.00371156
1.20938 0.1 0.225859 0.00380754
1.20938 0.1 -0.225859 0.00380749
1.04168 0.1 -0.656246 0.00372363
1.04168 0.1 0.656246 0.00372368
1.2267 0.1 -0.12733 0.00381798
1.2267 0.1 0.12733 0.00381805
0.287374 0.1 1.2 0.0037397
0.287374 0.1 -1.2 0.00373968
1.02149 0.1 -0.702294 0.00371598
1.02149 0.1 0.702294 0.00371608
0.075776 0.1 -1.2375 0.00375219
0.075776 0.1 1.2375 0.0037522
0.871399 0.1 0.88201 0.00369603
0.522865 0.1 1.125 0.00371681
0.522865 0.1 -1.125 0.00371679
1.2267 0.1 -0.190994 0.00381563
1.2267 0.1 0.190994 0.00381569
1.19808 0.1 -0.32548 0.003798
1.19808 0.1 0.32548 0.003798
0.990306 0.1 -0.75 0.00370815
0.990306 0.1 0.75 0.00370823
1.24274 0.1 -0.0314313 0.00382547
1.24274 0.1 0.0314313 0.00382546
1.20938 0.1 -0.29039 0.00380378
1.20938 0.1 0.29039 0.00380377
1.24274 0.1 -0.0942942 0.00382448
1.24274 0.1 0.0942942 0.00382453
0.93886 0.1 0.821002 0.00370106
1.11928 0.1 -0.552285 0.00375165
1.11928 0.1 0.552285 0.00375177
1.15704 0.1 -0.470036 0.00377145
1.15704 0.1 0.470036 0.00377152
0.969689 0.1 -0.7875 0.00370544
0.96969 0.1 0.7875 0.00370553
0.93886 0.1 -0.825 0.00370071
0.90582 0.1 0.8625 0.00369661
0.905821 0.1 -0.8625 0.00369654
1.1744 0.1 -0.430821 0.003781
1.1744 0.1 0.430821 0.00378106
1.10076 0.1 -0.594676 0.00374232
1.10076 0.1 0.594676 0.00374238
1.14316 0.1 -0.508816 0.00376319
1.14316 0.1 0.508816 0.00376344
1.24274 0.1 -0.157157 0.00382256
1.24274 0.1 0.157157 0.00382263
1.2267 0.1 -0.254659 0.00381235
1.2267 0.1 0.254659 0.00381237
0.467897 0.1 1.1625 0.00372244
0.467897 0.1 -1.1625 0.00372241
1.08012 0.1 0.638947 0.00373274
1.08012 0.1 -0.638947 0.00373261
1.25511 0.1 -5.78241e-19 0.00383103
0.835106 0.1 -0.9375 0.00369372
0.835106 0.1 0.9375 0.00369375
0.871687 0.1 -0.903998 0.00369525
1.25511 0.1 0.0622446 0.00383056
1.25511 0.1 -0.0622446 0.00383051
0.219992 0.1 1.2375 0.00374532
0.219992 0.1 -1.2375 0.00374529
0 0.1 -1.25701 0.00375
0 0.1 1.25701 0.00375
0.0363518 0.1 -1.25701 0.00375119
0.0363518 0.1 1.25701 0.0037512
0.797314 0.1 0.975 0.00369431
0.797314 0.1 -0.975 0.00369428
1.19808 0.1 -0.390576 0.0037925
1.19808 0.1 0.390576 0.00379251
1.0579 0.1 -0.684997 0.00372306
1.0579 0.1 0.684997 0.00372326
1.20938 0.1 -0.354921 0.00379897
1.20938 0.1 0.354921 0.00379895
1.25511 0.1 0.124489 0.00382909
1.25511 0.1 -0.124489 0.00382899
1.24274 0.1 -0.220019 0.00381972
1.24274 0.1 0.220019 0.00381976
0.756813 0.1 1.0125 0.00369545
0.756814 0.1 -1.0125 0.00369541
1.2267 0.1 -0.318324 0.00380805
1.2267 0.1 0.318324 0.00380803
0.411108 0.1 1.2 0.00372819
0.411108 0.1 -1.2 0.00372817
1.25511 0.1 -0.186734 0.0038265
1.25511 0.1 0.186734 0.00382662
0.714971 0.1 1.05 0.00369831
0.714971 0.1 -1.05 0.00369828
1.04168 0.1 -0.729162 0.00371545
1.04168 0.1 0.729162 0.00371553
1.24274 0.1 0.282882 0.00381592
1.24274 0.1 -0.282882 0.00381595
0 0.1 1.275 0.00375
0 0.1 -1.275 0.00375
1.1744 0.1 0.497102 0.00377324
1.1744 0.1 -0.497102 0.00377316
1.15704 0.1 -0.537184 0.00376312
1.15704 0.1 0.537184 0.00376319
1.2756 0.1 -0.03061 0.00383992
1.2756 0.1 0.03061 0.00383992
0.67013 0.1 1.0875 0.00370168
0.67013 0.1 -1.0875 0.00370166
1.2756 0.1 -0.09183 0.00383885
1.2756 0.1 0.09183 0.00383891
1.25511 0.1 -0.248978 0.00382308
1.25511 0.1 0.248978 0.00382317
1.20938 0.1 0.419453 0.00379287
1.20938 0.1 -0.419453 0.00379285
1.11928 0.1 -0.621322 0.00374298
1.11928 0.1 0.621322 0.00374309
1.14316 0.1 -0.576659 0.00375462
1.14316 0.1 0.576659 0.0037549
1.19808 0.1 -0.455673 0.00378553
1.19808 0.1 0.455673 0.00378558
1.02149 0.1 0.776219 0.00370825
1.02149 0.1 -0.776219 0.00370812
0.150379 0.1 1.275 0.00374866
0.150379 0.1 -1.275 0.00374865
1.2756 0.1 -0.15305 0.00383676
1.2756 0.1 0.15305 0.00383685
1.2267 0.1 -0.381989 0.00380256
1.2267 0.1 0.381989 0.00380255
1.10076 0.1 -0.664638 0.00373342
1.10076 0.1 0.664638 0.00373347