# kMean  POINT_DATA 63840
# x  y  z  kMean
0 0.5 3.39583e-17 0.00375
0 0.5 -0.00617931 0.00375
0 0.5 0.00617931 0.00375
0.0124865 0.5 -0.00617931 0.00375032
0.0124865 0.5 0.00617931 0.00375032
0 0.5 -0.0688207 0.00375
0 0.5 0.0688207 0.00375
0.0124865 0.5 -0.0688207 0.00375032
0.0124865 0.5 0.0688207 0.00375032
0 0.5 -0.075 0.00375
0 0.5 0.075 0.00375
0 0.5 -0.0811793 0.00375
0 0.5 0.0811793 0.00375
0.0124865 0.5 -0.0811793 0.00375033
0.0124865 0.5 0.0811793 0.00375033
0.075776 0.5 -0.0375 0.00375196
0.075776 0.5 0.0375 0.00375196
0.075776 0.5 -0.1125 0.003752
0.075776 0.5 0.1125 0.003752
0 0.5 -0.143821 0.00375
0 0.5 0.143821 0.00375
0.0124865 0.5 -0.143821 0.00375033
0.0124865 0.5 0.143821 0.00375033
0 0.5 -0.15 0.00375
0 0.5 0.15 0.00375
0.151149 0.5 -0.00137318 0.00375432
0 0.5 -0.156179 0.00375
0 0.5 0.156179 0.00375
0.0124865 0.5 -0.156179 0.00375035
0.0124865 0.5 0.156179 0.00375035
0.151149 0.5 0.075 0.00375439
0.151149 0.5 -0.075 0.00375438
0.075776 0.5 -0.1875 0.00375211
0.075776 0.5 0.1875 0.00375212
0.151149 0.5 0.15 0.00375454
0.151149 0.5 -0.15 0.00375453
0 0.5 -0.218821 0.00375
0 0.5 0.218821 0.00375
0.0124865 0.5 -0.218821 0.00375035
0.0124865 0.5 0.218821 0.00375035
0.219992 0.5 0.0375 0.00375656
0.219993 0.5 -0.0375 0.00375656
0 0.5 -0.225 0.00375
0 0.5 0.225 0.00375
0 0.5 -0.231179 0.00375
0 0.5 0.231179 0.00375
0.0124865 0.5 -0.231179 0.00375037
0.0124865 0.5 0.231179 0.00375037
0.219992 0.5 0.1125 0.0037567
0.219993 0.5 -0.1125 0.00375669
0.151149 0.5 -0.225 0.00375479
0.151149 0.5 0.225 0.00375479
0.075776 0.5 -0.2625 0.00375227
0.075776 0.5 0.2625 0.00375228
0.288069 0.5 -0.00137318 0.0037612
0.219992 0.5 0.1875 0.003757
0.219993 0.5 -0.1875 0.00375699
0 0.5 0.293821 0.00375
0 0.5 -0.293821 0.00375
0.0124865 0.5 -0.293821 0.00375037
0.0124865 0.5 0.293821 0.00375037
0.288069 0.5 -0.075 0.0037613
0.288069 0.5 0.075 0.00376131
0 0.5 -0.3 0.00375
0 0.5 0.3 0.00375
0 0.5 0.306179 0.00375
0 0.5 -0.306179 0.00375
0.0124865 0.5 -0.306179 0.00375041
0.0124865 0.5 0.306179 0.00375041
0.288069 0.5 -0.15 0.00376153
0.288069 0.5 0.15 0.00376154
0.151149 0.5 -0.3 0.00375512
0.151149 0.5 0.3 0.00375513
0.219992 0.5 -0.2625 0.00375742
0.219992 0.5 0.2625 0.00375744
0.075776 0.5 0.3375 0.00375247
0.075776 0.5 -0.3375 0.00375247
0.350249 0.5 -0.0375 0.00376561
0.350249 0.5 0.0375 0.00376562
0.288069 0.5 -0.225 0.00376192
0.288069 0.5 0.225 0.00376194
0.350249 0.5 0.1125 0.00376576
0.350249 0.5 -0.1125 0.00376575
0 0.5 0.368821 0.00375
0 0.5 -0.368821 0.00375
0.0124865 0.5 -0.368821 0.00375041
0.0124865 0.5 0.368821 0.00375041
0 0.5 -0.375 0.00375
0 0.5 0.375 0.00375
0 0.5 -0.381179 0.00375
0 0.5 0.381179 0.00375
0.0124865 0.5 -0.381179 0.00375044
0.0124865 0.5 0.381179 0.00375044
0.350249 0.5 -0.1875 0.00376611
0.350249 0.5 0.1875 0.00376612
0.219992 0.5 -0.3375 0.00375795
0.219992 0.5 0.3375 0.00375797
0.151149 0.5 -0.375 0.00375551
0.151149 0.5 0.375 0.00375552
0.411736 0.5 -0.00137318 0.00377279
0.288069 0.5 -0.3 0.00376243
0.288069 0.5 0.3 0.00376245
0.411736 0.5 -0.075 0.00377289
0.411736 0.5 0.075 0.0037729
0.075776 0.5 -0.4125 0.00375268
0.075776 0.5 0.4125 0.00375269
0.350249 0.5 -0.2625 0.00376658
0.350249 0.5 0.2625 0.0037666
0.411736 0.5 -0.15 0.0037731
0.411736 0.5 0.15 0.00377311
0 0.5 -0.443821 0.00375
0 0.5 0.443821 0.00375
0.0124865 0.5 -0.443821 0.00375044
0.0124865 0.5 0.443821 0.00375044
0 0.5 -0.45 0.00375
0 0.5 0.45 0.00375
0 0.5 -0.456179 0.00375
0 0.5 0.456179 0.00375
0.0124865 0.5 -0.456179 0.00375048
0.0124865 0.5 0.456179 0.00375048
0.219992 0.5 -0.4125 0.00375854
0.219993 0.5 0.4125 0.00375856
0.411736 0.5 -0.225 0.00377345
0.411736 0.5 0.225 0.00377347
0.467897 0.5 0.0375 0.00377963
0.467897 0.5 -0.0375 0.00377963
0.288069 0.5 -0.375 0.00376301
0.288069 0.5 0.375 0.00376303
0.151149 0.5 -0.45 0.00375592
0.151149 0.5 0.45 0.00375593
0.467897 0.5 -0.1125 0.00377971
0.467897 0.5 0.1125 0.00377973
0.350249 0.5 0.3375 0.00376718
0.350249 0.5 -0.3375 0.00376716
0.075776 0.5 -0.4875 0.0037529
0.075776 0.5 0.4875 0.00375291
0.467897 0.5 -0.1875 0.00377996
0.467897 0.5 0.1875 0.00377998
0.411736 0.5 -0.3 0.00377389
0.411736 0.5 0.3 0.00377391
0 0.5 -0.518821 0.00375
0 0.5 0.518821 0.00375
0.0124865 0.5 0.518821 0.00375048
0.0124865 0.5 -0.518821 0.00375048
0.523432 0.5 -0.00137318 0.00378914
0 0.5 -0.525 0.00375
0 0.5 0.525 0.00375
0.523432 0.5 -0.075 0.00378922
0.523432 0.5 0.075 0.00378923
0 0.5 -0.531179 0.00375
0 0.5 0.531179 0.00375
0.0124865 0.5 -0.531179 0.00375051
0.0124865 0.5 0.531179 0.00375051
0.288069 0.5 -0.45 0.00376363
0.288069 0.5 0.45 0.00376366
0.219992 0.5 -0.4875 0.00375914
0.219993 0.5 0.4875 0.00375916
0.467897 0.5 -0.2625 0.00378029
0.467897 0.5 0.2625 0.00378032
0.350249 0.5 -0.4125 0.00376779
0.350249 0.5 0.4125 0.00376783
0.523432 0.5 -0.15 0.00378931
0.523432 0.5 0.15 0.00378932
0.151149 0.5 -0.525 0.00375633
0.151149 0.5 0.525 0.00375634
0.411736 0.5 -0.375 0.00377439
0.411736 0.5 0.375 0.00377442
0.075776 0.5 -0.5625 0.00375311
0.075776 0.5 0.5625 0.00375311
0.523432 0.5 -0.225 0.00378947
0.523432 0.5 0.225 0.00378949
0.574156 0.5 -0.0375 0.00379825
0.574156 0.5 0.0375 0.00379826
0.467897 0.5 0.3375 0.00378072
0.467897 0.5 -0.3375 0.00378069
0.574156 0.5 -0.1125 0.00379823
0.574156 0.5 0.1125 0.00379824
0 0.5 -0.593821 0.00375
0 0.5 0.593821 0.00375
0.0124865 0.5 -0.593821 0.00375051
0.0124865 0.5 0.593821 0.00375051
0.288069 0.5 -0.525 0.00376424
0.288069 0.5 0.525 0.00376427
0 0.5 -0.6 0.00375
0 0.5 0.6 0.00375
0.350249 0.5 -0.4875 0.00376844
0.350249 0.5 0.4875 0.00376848
0.523432 0.5 -0.3 0.00378966
0.523432 0.5 0.3 0.00378969
0.219992 0.5 -0.5625 0.00375972
0.219992 0.5 0.5625 0.00375975
0.574156 0.5 -0.1875 0.00379827
0.574156 0.5 0.1875 0.00379829
0 0.5 -0.606179 0.00375
0 0.5 0.606179 0.00375
0.0124865 0.5 -0.606179 0.00375054
0.0124865 0.5 0.606179 0.00375054
0.411736 0.5 -0.45 0.00377491
0.411736 0.5 0.45 0.00377494
0.151149 0.5 -0.6 0.00375671
0.151149 0.5 0.6 0.00375673
0.62168 0.5 2.64545e-17 0.00380921
0.467897 0.5 0.4125 0.00378113
0.467897 0.5 -0.4125 0.0037811
0.624316 0.5 0.0729402 0.00380987
0.624316 0.5 -0.075 0.00380986
0.574156 0.5 -0.2625 0.0037983
0.574157 0.5 0.2625 0.00379833
0.075776 0.5 -0.6375 0.00375329
0.075776 0.5 0.6375 0.0037533
0.624316 0.5 -0.15 0.00380975
0.624316 0.5 0.15 0.00380977
0.523432 0.5 -0.375 0.00378985
0.523432 0.5 0.375 0.00378988
0.350249 0.5 -0.5625 0.00376906
0.350249 0.5 0.5625 0.0037691
0.624316 0.5 -0.225 0.0038096
0.624316 0.5 0.225 0.00380962
0.288069 0.5 0.6 0.00376485
0.288069 0.5 -0.6 0.00376482
0.574156 0.5 -0.3375 0.00379832
0.574156 0.5 0.3375 0.00379835
0.411736 0.5 -0.525 0.0037754
0.411736 0.5 0.525 0.00377543
0 0.5 -0.668821 0.00375
0 0.5 0.668821 0.00375
0.0124865 0.5 -0.668821 0.00375054
0.0124865 0.5 0.668821 0.00375054
0.67013 0.5 0.0375 0.00382098
0.67013 0.5 -0.0375 0.00382098
0.219993 0.5 -0.6375 0.00376026
0.219993 0.5 0.6375 0.00376029
0 0.5 -0.675 0.00375
0 0.5 0.675 0.00375
0.467897 0.5 0.4875 0.00378152
0.467897 0.5 -0.4875 0.00378148
0.67013 0.5 -0.1125 0.0038208
0.67013 0.5 0.1125 0.00382081
0 0.5 -0.681179 0.00375
0 0.5 0.681179 0.00375
0.0124865 0.5 -0.681179 0.00375057
0.0124865 0.5 0.681179 0.00375057
0.523432 0.5 -0.45 0.00379
0.523432 0.5 0.45 0.00379004
0.151149 0.5 -0.675 0.00375706
0.151149 0.5 0.675 0.00375707
0.624316 0.5 -0.3 0.00380939
0.624316 0.5 0.3 0.00380942
0.67013 0.5 0.1875 0.00382055
0.67013 0.5 -0.1875 0.00382053
0.574156 0.5 -0.4125 0.00379828
0.574157 0.5 0.4125 0.00379832
0.708171 0.5 1.88651e-17 0.00383223
0.075776 0.5 -0.7125 0.00375346
0.075776 0.5 0.7125 0.00375346
0.715434 0.5 0.0736268 0.00383399
0.715434 0.5 -0.075 0.00383426
0.67013 0.5 0.2625 0.00382016
0.67013 0.5 -0.2625 0.00382013
0.350249 0.5 -0.6375 0.00376962
0.350249 0.5 0.6375 0.00376965
0.411736 0.5 -0.6 0.00377582
0.411736 0.5 0.6 0.00377586
0.624316 0.5 -0.375 0.00380909
0.624316 0.5 0.375 0.00380913
0.715434 0.5 -0.15 0.00383389
0.715434 0.5 0.15 0.00383391
0.467897 0.5 -0.5625 0.00378181
0.467897 0.5 0.5625 0.00378185
0.288069 0.5 -0.675 0.00376533
0.288069 0.5 0.675 0.00376535
0.523432 0.5 -0.525 0.00379007
0.523432 0.5 0.525 0.00379012
0 0.5 -0.743821 0.00375
0 0.5 0.743821 0.00375
0.0124865 0.5 -0.743821 0.00375057
0.0124865 0.5 0.743821 0.00375057
0.219992 0.5 0.7125 0.00376076
0.219992 0.5 -0.7125 0.00376073
0.715434 0.5 -0.225 0.00383333
0.715434 0.5 0.225 0.00383336
0 0.5 -0.75 0.00375
0 0.5 0.75 0.00375
0.67013 0.5 0.3375 0.00381971
0.67013 0.5 -0.3375 0.00381967
0.574156 0.5 -0.4875 0.00379816
0.574156 0.5 0.4875 0.0037982
0 0.5 -0.756179 0.00375
0 0.5 0.756179 0.00375
0.0124865 0.5 -0.756179 0.00375059
0.0124865 0.5 0.756179 0.00375059
0.756813 0.5 -0.0375 0.00384718
0.756813 0.5 0.0375 0.00384719
0.151149 0.5 -0.75 0.00375735
0.151149 0.5 0.75 0.00375736
0.756813 0.5 -0.1125 0.00384681
0.756813 0.5 0.1125 0.00384683
0.624316 0.5 -0.45 0.00380865
0.624316 0.5 0.45 0.00380869
0.715434 0.5 -0.3 0.0038326
0.715434 0.5 0.3 0.00383264
0.756813 0.5 0.1875 0.00384621
0.756813 0.5 -0.1875 0.00384618
0.67013 0.5 -0.4125 0.00381897
0.67013 0.5 0.4125 0.00381901
0.411736 0.5 -0.675 0.00377616
0.411736 0.5 0.675 0.0037762
0.467897 0.5 0.6375 0.00378208
0.467897 0.5 -0.6375 0.00378204
0.075776 0.5 -0.7875 0.00375359
0.075776 0.5 0.7875 0.00375359
0.350249 0.5 -0.7125 0.00377008
0.350249 0.5 0.7125 0.00377011
0.523432 0.5 -0.6 0.00379005
0.523432 0.5 0.6 0.00379009
0.797732 0.5 2.68882e-17 0.00386217
0.756813 0.5 -0.2625 0.00384526
0.756814 0.5 0.2625 0.00384529
0.797732 0.5 0.0736268 0.0038618
0.797732 0.5 -0.075 0.00386192
0.288069 0.5 -0.75 0.00376574
0.288069 0.5 0.75 0.00376577
0.574156 0.5 -0.5625 0.00379791
0.574157 0.5 0.5625 0.00379796
0.715434 0.5 -0.375 0.00383166
0.715434 0.5 0.375 0.0038317
0.797732 0.5 -0.15 0.00386123
0.797732 0.5 0.15 0.00386124
0.624316 0.5 -0.525 0.00380807
0.624316 0.5 0.525 0.00380812
0.219992 0.5 -0.7875 0.00376112
0.219992 0.5 0.7875 0.00376114
0 0.5 -0.818821 0.00375
0 0.5 0.818821 0.00375
0.0124865 0.5 0.818821 0.00375059
0.0124865 0.5 -0.818821 0.00375059
0 0.5 -0.825 0.00375
0 0.5 0.825 0.00375
0.756813 0.5 0.3375 0.00384419
0.756814 0.5 -0.3375 0.00384415
0.67013 0.5 -0.4875 0.00381811
0.67013 0.5 0.4875 0.00381816
0.797732 0.5 -0.225 0.00386015
0.797732 0.5 0.225 0.00386018
0 0.5 -0.831179 0.00375
0 0.5 0.831179 0.00375
0.0124865 0.5 -0.831179 0.00375061
0.0124865 0.5 0.831179 0.00375061
0.835106 0.5 0.0375 0.00387651
0.835106 0.5 -0.0375 0.0038765
0.151149 0.5 -0.825 0.00375757
0.151149 0.5 0.825 0.00375759
0.835106 0.5 0.1125 0.0038759
0.835106 0.5 -0.1125 0.00387588
0.715434 0.5 -0.45 0.00383045
0.715434 0.5 0.45 0.0038305
0.797732 0.5 -0.3 0.00385872
0.797732 0.5 0.3 0.00385875
0.467897 0.5 0.7125 0.0037822
0.467897 0.5 -0.7125 0.00378215
0.523432 0.5 -0.675 0.00378991
0.523432 0.5 0.675 0.00378995
0.411736 0.5 -0.75 0.00377638
0.411736 0.5 0.75 0.00377642
0.835106 0.5 -0.1875 0.00387476
0.835106 0.5 0.1875 0.00387479
0.574156 0.5 -0.6375 0.00379754
0.574157 0.5 0.6375 0.00379759
0.350249 0.5 -0.7875 0.00377043
0.350249 0.5 0.7875 0.00377046
0.756813 0.5 -0.4125 0.00384268
0.756814 0.5 0.4125 0.00384273
0.075776 0.5 -0.8625 0.00375368
0.075776 0.5 0.8625 0.00375368
0.624316 0.5 0.6 0.00380739
0.624316 0.5 -0.6 0.00380735
0.872064 0.5 5.91974e-17 0.00389206
0.870122 0.5 0.075 0.00389076
0.288069 0.5 -0.825 0.00376605
0.288069 0.5 0.825 0.00376607
0.67013 0.5 -0.5625 0.00381708
0.67013 0.5 0.5625 0.00381712
0.872064 0.5 -0.075 0.00389172
0.835106 0.5 -0.2625 0.00387315
0.835106 0.5 0.2625 0.00387318
0.797732 0.5 -0.375 0.00385698
0.797732 0.5 0.375 0.00385702
0.872064 0.5 0.14794 0.00389078
0.872064 0.5 -0.15 0.00389077
0.715434 0.5 -0.525 0.00382902
0.715434 0.5 0.525 0.00382907
0.219992 0.5 0.8625 0.00376142
0.219993 0.5 -0.8625 0.0037614
0 0.5 -0.893821 0.00375
0 0.5 0.893821 0.00375
0.0124865 0.5 -0.893821 0.00375061
0.0124865 0.5 0.893821 0.00375061
0 0.5 -0.9 0.00375
0 0.5 0.9 0.00375
0.756813 0.5 -0.4875 0.00384092
0.756813 0.5 0.4875 0.00384097
0.872064 0.5 -0.225 0.00388926
0.872064 0.5 0.225 0.00388929
0.835106 0.5 -0.3375 0.00387112
0.835106 0.5 0.3375 0.00387116
0 0.5 0.906179 0.00375
0 0.5 -0.906179 0.00375
0.0124865 0.5 -0.906179 0.00375062
0.0124865 0.5 0.906179 0.00375062
0.90582 0.5 -0.0375 0.00390702
0.90582 0.5 0.0375 0.00390702
0.151149 0.5 -0.9 0.00375773
0.151149 0.5 0.9 0.00375774
0.90582 0.5 -0.1125 0.00390628
0.905821 0.5 0.1125 0.0039063
0.523432 0.5 -0.75 0.00378963
0.523432 0.5 0.75 0.00378967
0.574156 0.5 -0.7125 0.00379703
0.574156 0.5 0.7125 0.00379707
0.797732 0.5 -0.45 0.00385488
0.797732 0.5 0.45 0.00385493
0.467897 0.5 0.7875 0.00378218
0.467897 0.5 -0.7875 0.00378214
0.624316 0.5 -0.675 0.00380646
0.624316 0.5 0.675 0.00380651
0.411736 0.5 -0.825 0.00377647
0.411736 0.5 0.825 0.00377651
0.872064 0.5 0.3 0.00388728
0.872064 0.5 -0.3 0.00388725
0.67013 0.5 -0.6375 0.00381586
0.67013 0.5 0.6375 0.00381591
0.90582 0.5 0.1875 0.00390497
0.905821 0.5 -0.1875 0.00390494
0.350249 0.5 -0.8625 0.00377064
0.350249 0.5 0.8625 0.00377067
0.835106 0.5 -0.4125 0.00386881
0.835106 0.5 0.4125 0.00386885
0.715434 0.5 -0.6 0.00382738
0.715434 0.5 0.6 0.00382742
0.939201 0.5 2.75387e-17 0.00392235
0.075776 0.5 0.9375 0.00375374
0.075776 0.5 -0.9375 0.00375373
0.939111 0.5 0.075 0.0039219
0.939201 0.5 -0.075 0.00392195
0.756813 0.5 0.5625 0.00383895
0.756814 0.5 -0.5625 0.0038389
0.90582 0.5 0.2625 0.00390305
0.905821 0.5 -0.2625 0.00390302
0.288069 0.5 -0.9 0.00376623
0.288069 0.5 0.9 0.00376626
0.872064 0.5 -0.375 0.00388473
0.872064 0.5 0.375 0.00388477
0.939201 0.5 0.148627 0.00392074
0.939201 0.5 -0.15 0.00392084
0.797732 0.5 -0.525 0.00385242
0.797732 0.5 0.525 0.00385247
0.219992 0.5 0.9375 0.00376161
0.219992 0.5 -0.9375 0.00376159
0.939201 0.5 -0.225 0.00391908
0.939201 0.5 0.225 0.00391911
0.905821 0.5 -0.3375 0.00390054
0.90582 0.5 0.3375 0.00390058
0.835106 0.5 -0.4875 0.00386599
0.835106 0.5 0.4875 0.00386604
0 0.5 0.968821 0.00375
0 0.5 -0.968821 0.00375
0.0124865 0.5 -0.968821 0.00375062
0.0124865 0.5 0.968821 0.00375062
0.969689 0.5 -0.0375 0.00393715
0.969689 0.5 0.0375 0.00393716
0.574156 0.5 -0.7875 0.00379636
0.574156 0.5 0.7875 0.00379641
0 0.5 -0.975 0.00375
0 0.5 0.975 0.00375
0.624316 0.5 -0.75 0.00380542
0.624316 0.5 0.75 0.00380546
0.969689 0.5 -0.1125 0.00393632
0.96969 0.5 0.1125 0.00393633
0.523432 0.5 -0.825 0.0037892
0.523432 0.5 0.825 0.00378925
0.67013 0.5 0.7125 0.00381452
0.67013 0.5 -0.7125 0.00381447
0 0.5 -0.981179 0.00375
0 0.5 0.981179 0.00375
0.467897 0.5 0.8625 0.00378201
0.467897 0.5 -0.8625 0.00378197
0.0124865 0.5 -0.981179 0.00375062
0.0124865 0.5 0.981179 0.00375062
0.872064 0.5 -0.45 0.00388164
0.872064 0.5 0.45 0.00388168
0.715434 0.5 -0.675 0.00382553
0.715434 0.5 0.675 0.00382557
0.939201 0.5 -0.3 0.0039167
0.939201 0.5 0.3 0.00391674
0.151149 0.5 0.975 0.00375783
0.151149 0.5 -0.975 0.00375782
0.969689 0.5 -0.1875 0.00393477
0.969689 0.5 0.1875 0.00393479
0.756813 0.5 -0.6375 0.00383664
0.756813 0.5 0.6375 0.00383669
0.411736 0.5 -0.9 0.00377641
0.411736 0.5 0.9 0.00377645
0.90582 0.5 -0.4125 0.00389733
0.90582 0.5 0.4125 0.00389737
0.995005 0.5 0.0749309 0.00394799
0.797732 0.5 -0.6 0.00384967
0.797732 0.5 0.6 0.00384971
1.00005 0.5 -8.47123e-18 0.00395097
0.350249 0.5 -0.9375 0.00377071
0.350249 0.5 0.9375 0.00377074
1.00005 0.5 -0.0749309 0.00395054
0.969689 0.5 -0.2625 0.00393255
0.969689 0.5 0.2625 0.00393258
0.835106 0.5 -0.5625 0.00386279
0.835106 0.5 0.5625 0.00386284
1.00005 0.5 -0.149862 0.0039493
0.939201 0.5 -0.375 0.00391362
0.939201 0.5 0.375 0.00391366
1.00029 0.5 0.148988 0.00394902
0.075776 0.5 -1.0125 0.00375376
0.075776 0.5 1.0125 0.00375377
0.288069 0.5 0.975 0.00376632
0.288069 0.5 -0.975 0.0037663
0.872064 0.5 -0.525 0.00387802
0.872064 0.5 0.525 0.00387807
1.00005 0.5 0.224793 0.00394738
1.00005 0.5 -0.224793 0.00394734
0.969689 0.5 0.3375 0.00392972
0.96969 0.5 -0.3375 0.00392968
1.0271 0.5 -0.0368226 0.00396613
1.0271 0.5 0.0368226 0.00396613
0.90582 0.5 0.4875 0.00389336
0.905821 0.5 -0.4875 0.00389332
1.0271 0.5 -0.110468 0.00396524
1.0271 0.5 0.110468 0.00396664
0.67013 0.5 0.7875 0.00381296
0.67013 0.5 -0.7875 0.00381291
0.624316 0.5 0.825 0.00380426
0.624316 0.5 -0.825 0.00380422
0.219993 0.5 -1.0125 0.00376167
0.219993 0.5 1.0125 0.00376169
0.574156 0.5 -0.8625 0.00379555
0.574156 0.5 0.8625 0.00379559
0.715434 0.5 -0.75 0.00382349
0.715434 0.5 0.75 0.00382354
0.756813 0.5 0.7125 0.00383421
0.756814 0.5 -0.7125 0.00383416
0.523432 0.5 -0.9 0.00378862
0.523432 0.5 0.9 0.00378866
0.939201 0.5 -0.45 0.00390964
0.939201 0.5 0.45 0.00390968
1.04168 0.5 0 0.00397393
1.0271 0.5 -0.184113 0.00396359
1.0271 0.5 0.184113 0.00396361
0 0.5 -1.04382 0.00375
0 0.5 1.04382 0.00375
0.0124865 0.5 -1.04382 0.00375062
0.0124865 0.5 1.04382 0.00375062
1.00005 0.5 -0.299723 0.00394471
1.00005 0.5 0.299723 0.00394475
1.04168 0.5 -0.0729162 0.00397348
1.04168 0.5 0.0729162 0.00397349
0.797732 0.5 -0.675 0.00384666
0.797732 0.5 0.675 0.00384671
0.467897 0.5 0.9375 0.00378169
0.467897 0.5 -0.9375 0.00378165
0 0.5 -1.05 0.00375
0 0.5 1.05 0.00375
0.835106 0.5 -0.6375 0.00385931
0.835106 0.5 0.6375 0.00385936
1.04168 0.5 -0.145832 0.00397218
1.04168 0.5 0.145832 0.0039722
0.969689 0.5 -0.4125 0.00392592
0.96969 0.5 0.4125 0.00392597
0 0.5 -1.05618 0.00375
0 0.5 1.05618 0.00375
0.0124865 0.5 -1.05618 0.00375062
0.0124865 0.5 1.05618 0.00375062
1.05695 0.5 -0.0360764 0.0039818
1.05695 0.5 0.0360764 0.00398181
0.411736 0.5 -0.975 0.00377621
0.411736 0.5 0.975 0.00377624
0.872064 0.5 -0.6 0.00387404
0.872064 0.5 0.6 0.00387409
1.0271 0.5 -0.257759 0.00396121
1.0271 0.5 0.257759 0.00396124
0.151149 0.5 -1.05 0.00375784
0.151149 0.5 1.05 0.00375785
1.05695 0.5 0.108229 0.00398248
1.05695 0.5 -0.108229 0.00398088
1.04168 0.5 -0.218749 0.00397013
1.04168 0.5 0.218749 0.00397016
0.90582 0.5 -0.5625 0.00388895
0.905821 0.5 0.5625 0.00388899
1.00005 0.5 -0.374654 0.00394129
1.00005 0.5 0.374654 0.00394134
0.350249 0.5 1.0125 0.00377067
0.350249 0.5 -1.0125 0.00377064
1.05695 0.5 -0.180382 0.00397917
1.05695 0.5 0.180382 0.00397921
1.07319 0.5 0.0709442 0.00399063
0.939201 0.5 -0.525 0.00390475
0.939201 0.5 0.525 0.00390479
1.0271 0.5 -0.331404 0.00395814
1.0271 0.5 0.331404 0.00395817
1.08112 0.5 3.23815e-17 0.00399565
1.04168 0.5 -0.291665 0.00396736
1.04168 0.5 0.291665 0.0039674
1.08112 0.5 -0.0709442 0.00399518
0.969689 0.5 -0.4875 0.00392101
0.96969 0.5 0.4875 0.00392106
1.05695 0.5 0.252535 0.00397677
1.05695 0.5 -0.252535 0.00397671
0.288069 0.5 -1.05 0.00376624
0.288069 0.5 1.05 0.00376627
0.075776 0.5 -1.0875 0.00375376
0.075776 0.5 1.0875 0.00375376
1.08112 0.5 -0.141888 0.00399382
1.08145 0.5 0.140165 0.00399332
0.715434 0.5 0.825 0.00382134
0.715434 0.5 -0.825 0.00382129
0.756813 0.5 0.7875 0.00383154
0.756814 0.5 -0.7875 0.00383149
0.67013 0.5 -0.8625 0.0038112
0.67013 0.5 0.8625 0.00381124
0.797732 0.5 -0.75 0.00384344
0.797732 0.5 0.75 0.00384349
0.624316 0.5 -0.9 0.00380286
0.624316 0.5 0.9 0.00380291
1.00005 0.5 -0.449585 0.00393685
1.00005 0.5 0.449585 0.00393691
0.835106 0.5 -0.7125 0.00385558
0.835106 0.5 0.7125 0.00385563
0.574156 0.5 -0.9375 0.00379457
0.574157 0.5 0.9375 0.00379461
1.10076 0.5 -0.0349809 0.00400707
1.10076 0.5 0.0349809 0.00400708
1.08112 0.5 -0.212832 0.00399168
1.08112 0.5 0.212832 0.00399172
0.872064 0.5 -0.675 0.00386971
0.872064 0.5 0.675 0.00386976
1.04168 0.5 -0.364581 0.00396383
1.04168 0.5 0.364581 0.00396387
1.0271 0.5 0.405049 0.00395423
1.0271 0.5 -0.405049 0.00395419
1.05695 0.5 -0.324688 0.00397355
1.05695 0.5 0.324688 0.00397361
1.10076 0.5 -0.104943 0.00400611
1.10076 0.5 0.104943 0.00400613
0.523432 0.5 0.975 0.00378792
0.523432 0.5 -0.975 0.00378788
0.90582 0.5 0.6375 0.00388418
0.905821 0.5 -0.6375 0.00388414
0.219992 0.5 1.0875 0.00376167
0.219992 0.5 -1.0875 0.00376165
1.11376 0.5 3.81639e-17 0.00401489
0.939201 0.5 0.6 0.00389932
0.939201 0.5 -0.6 0.00389927
1.10076 0.5 -0.174905 0.00400431
1.10076 0.5 0.174905 0.00400434
0.467897 0.5 -1.0125 0.00378117
0.467897 0.5 1.0125 0.0037812
1.11376 0.5 -0.0693118 0.0040144
1.11376 0.5 0.0693118 0.00401441
1.08112 0.5 0.283777 0.00398884
1.08112 0.5 -0.283777 0.00398879
0 0.5 -1.11882 0.00375
0 0.5 1.11882 0.00375
0.0124865 0.5 -1.11882 0.00375062
0.0124865 0.5 1.11882 0.00375062
0.969689 0.5 -0.5625 0.00391478
0.969689 0.5 0.5625 0.00391482
1.11376 0.5 0.138624 0.00401287
1.11376 0.5 -0.138624 0.004013
0 0.5 -1.125 0.00375
0 0.5 1.125 0.00375
1.10076 0.5 0.244866 0.00400176
1.10076 0.5 -0.244866 0.00400173
0.411736 0.5 -1.05 0.00377585
0.411736 0.5 1.05 0.00377588
1.05695 0.5 -0.396841 0.00396954
1.05695 0.5 0.396841 0.00396962
1.00005 0.5 -0.524516 0.00393107
1.00005 0.5 0.524516 0.00393114
1.04168 0.5 -0.437497 0.0039593
1.04168 0.5 0.437497 0.00395934
0 0.5 -1.13118 0.00375
0 0.5 1.13118 0.00375
0.0124865 0.5 -1.13118 0.00375062
0.0124865 0.5 1.13118 0.00375062
1.11376 0.5 -0.207935 0.00401077
1.11376 0.5 0.207935 0.00401079
1.0271 0.5 -0.478694 0.00394907
1.0271 0.5 0.478694 0.00394911
0.151149 0.5 -1.125 0.0037578
0.151149 0.5 1.125 0.00375781
1.08112 0.5 -0.354722 0.00398513
1.08112 0.5 0.354722 0.00398519
1.13882 0.5 -0.0340295 0.00403031
1.13882 0.5 0.0340295 0.00403031
0.350249 0.5 -1.0875 0.00377044
0.350249 0.5 1.0875 0.00377047
1.13882 0.5 -0.102088 0.00402931
1.13882 0.5 0.102088 0.00403016
1.10076 0.5 -0.314829 0.00399842
1.10076 0.5 0.314829 0.00399845
0.756813 0.5 -0.8625 0.00382868
0.756814 0.5 0.8625 0.00382873
0.797732 0.5 -0.825 0.00384005
0.797732 0.5 0.825 0.0038401
1.11376 0.5 -0.277247 0.00400777
1.11376 0.5 0.277247 0.0040078
0.835106 0.5 0.7875 0.00385168
0.835106 0.5 -0.7875 0.00385163
0.715434 0.5 -0.9 0.00381894
0.715434 0.5 0.9 0.00381898
0.872064 0.5 -0.75 0.0038651
0.872064 0.5 0.75 0.00386515
1.13882 0.5 0.170147 0.00402745
1.13882 0.5 -0.170147 0.00402742
0.67013 0.5 -0.9375 0.00380934
0.67013 0.5 0.9375 0.00380938
0.905821 0.5 -0.7125 0.00387888
0.905821 0.5 0.7125 0.00387893
1.05695 0.5 0.468994 0.0039645
1.05695 0.5 -0.468994 0.00396441
0.939201 0.5 -0.675 0.00389353
0.939201 0.5 0.675 0.00389358
0.624316 0.5 0.975 0.00380139
0.624316 0.5 -0.975 0.00380135
1.04168 0.5 -0.510414 0.00395341
1.04168 0.5 0.510414 0.00395345
0.969689 0.5 -0.6375 0.00390835
0.96969 0.5 0.6375 0.0039084
0.288069 0.5 -1.125 0.00376608
0.288069 0.5 1.125 0.0037661
1.16179 0.5 5.78241e-19 0.00404553
1.08112 0.5 0.425666 0.00398059
1.08112 0.5 -0.425666 0.00398053
1.13882 0.5 -0.238206 0.00402471
1.13882 0.5 0.238206 0.00402475
1.16179 0.5 0.0669104 0.0040474
1.16179 0.5 -0.0669104 0.00404501
0.574156 0.5 -1.0125 0.00379342
0.574156 0.5 1.0125 0.00379346
0.075776 0.5 -1.1625 0.00375372
0.075776 0.5 1.1625 0.00375373
1.00005 0.5 -0.599447 0.00392442
1.00005 0.5 0.599447 0.00392449
1.10076 0.5 0.384791 0.00399434
1.10076 0.5 -0.384791 0.00399429
1.0271 0.5 -0.55234 0.00394248
1.0271 0.5 0.55234 0.00394253
1.11376 0.5 -0.346559 0.004004
1.11376 0.5 0.346559 0.00400403
1.16179 0.5 -0.133821 0.00404351
1.16179 0.5 0.133821 0.00404387
0.523432 0.5 -1.05 0.00378699
0.523432 0.5 1.05 0.00378702
1.17463 0.5 -0.0331343 0.00405337
1.17463 0.5 0.0331343 0.00405337
1.17463 0.5 -0.0994029 0.00405231
1.17463 0.5 0.0994029 0.00405233
1.16179 0.5 -0.200731 0.00404112
1.16179 0.5 0.200731 0.00404117
1.13882 0.5 -0.306265 0.00402123
1.13882 0.5 0.306265 0.00402127
0.219992 0.5 -1.1625 0.00376154
0.219992 0.5 1.1625 0.00376155
0.467897 0.5 -1.0875 0.00378054
0.467897 0.5 1.0875 0.00378057
1.17463 0.5 0.165672 0.00405035
1.17463 0.5 -0.165672 0.00405033
1.05695 0.5 -0.541147 0.00395774
1.05695 0.5 0.541147 0.00395784
1.18772 0.5 -5.78241e-19 0.00406234
1.11376 0.5 -0.41587 0.00399931
1.11376 0.5 0.41587 0.00399936
1.18772 0.5 -0.065614 0.0040618
1.18772 0.5 0.065614 0.00406174
1.08112 0.5 -0.49661 0.00397461
1.08112 0.5 0.49661 0.00397468
1.10076 0.5 -0.454752 0.00398914
1.10076 0.5 0.454752 0.00398918
1.18534 0.5 0.118202 0.00406026
1.16179 0.5 -0.267642 0.00403791
1.16179 0.5 0.267642 0.00403798
0 0.5 -1.19382 0.00375
0 0.5 1.19382 0.00375
0.0124865 0.5 1.19382 0.00375062
0.0124865 0.5 -1.19382 0.00375062
1.04168 0.5 -0.58333 0.00394642
1.04168 0.5 0.58333 0.00394646
1.18772 0.5 -0.131228 0.00406025
1.17463 0.5 -0.23194 0.00404747
1.17463 0.5 0.23194 0.0040475
0.411736 0.5 -1.125 0.00377537
0.411736 0.5 1.125 0.0037754
1.13882 0.5 -0.374324 0.00401694
1.13882 0.5 0.374324 0.00401699
0 0.5 -1.2 0.00375
0 0.5 1.2 0.00375
0.905821 0.5 0.7875 0.00387348
0.905821 0.5 -0.7875 0.00387343
0.872064 0.5 -0.825 0.00386031
0.872064 0.5 0.825 0.00386036
0.835106 0.5 0.8625 0.00384759
0.835106 0.5 -0.8625 0.00384754
0.939201 0.5 -0.75 0.00388749
0.939201 0.5 0.75 0.00388754
0.797732 0.5 -0.9 0.00383651
0.797732 0.5 0.9 0.00383656
1.0271 0.5 0.625985 0.00393535
1.0271 0.5 -0.625985 0.0039353
0.969689 0.5 0.7125 0.00390197
0.96969 0.5 -0.7125 0.00390193
1.18772 0.5 -0.196842 0.00405777
1.18772 0.5 0.196842 0.0040578
0.756814 0.5 -0.9375 0.00382572
0.756814 0.5 0.9375 0.00382577
0 0.5 1.20618 0.00375
0 0.5 -1.20618 0.00375
1.00005 0.5 -0.674378 0.00391747
1.00005 0.5 0.674378 0.00391755
0.0124865 0.5 1.20618 0.00375061
0.0124865 0.5 -1.20618 0.0037506
1.16179 0.5 -0.334552 0.0040339
1.16179 0.5 0.334552 0.00403398
0.715434 0.5 0.975 0.00381648
0.715434 0.5 -0.975 0.00381644
0.151149 0.5 -1.2 0.00375769
0.151149 0.5 1.2 0.0037577
1.20942 0.5 0.0322645 0.00407773
1.20942 0.5 -0.0322645 0.00407746
1.17463 0.5 -0.298209 0.00404382
1.17463 0.5 0.298209 0.00404385
1.20942 0.5 -0.0967935 0.00407635
1.20942 0.5 0.0967935 0.00407636
0.350249 0.5 -1.1625 0.00377012
0.350249 0.5 1.1625 0.00377014
0.67013 0.5 1.0125 0.00380737
0.67013 0.5 -1.0125 0.00380733
1.11376 0.5 0.485183 0.00399342
1.11376 0.5 -0.485183 0.00399337
1.18772 0.5 0.262456 0.00405447
1.18772 0.5 -0.262456 0.00405444
1.10076 0.5 -0.524714 0.00398245
1.10076 0.5 0.524714 0.00398249
1.20942 0.5 -0.161322 0.00407426
1.20942 0.5 0.161322 0.00407428
1.08112 0.5 -0.567554 0.0039675
1.08112 0.5 0.567554 0.00396757
0.624316 0.5 -1.05 0.0037997
0.624316 0.5 1.05 0.00379974
1.13882 0.5 -0.442383 0.00401167
1.13882 0.5 0.442383 0.00401173
1.05695 0.5 0.6133 0.00395046
1.05695 0.5 -0.6133 0.00395035
1.16179 0.5 -0.401463 0.00402903
1.16179 0.5 0.401463 0.00402912
0.574156 0.5 -1.0875 0.00379214
0.574156 0.5 1.0875 0.00379218
1.17463 0.5 0.364477 0.00403939
1.17463 0.5 -0.364477 0.00403935
1.20942 0.5 -0.225851 0.00407124
1.20942 0.5 0.225851 0.00407126
1.23036 0.5 -1.32995e-17 0.0040933
1.2294 0.5 0.0634819 0.00409217
1.04168 0.5 -0.656246 0.0039389
1.04168 0.5 0.656246 0.00393895
1.23036 0.5 -0.0634819 0.00409271
1.18772 0.5 0.32807 0.00405033
1.18772 0.5 -0.32807 0.0040503
0.288069 0.5 -1.2 0.0037658
0.288069 0.5 1.2 0.00376582
1.23036 0.5 -0.126964 0.00409104
1.23036 0.5 0.126964 0.0040911
0.075776 0.5 -1.2375 0.00375366
0.075776 0.5 1.2375 0.00375366
0.523432 0.5 -1.125 0.00378597
0.523432 0.5 1.125 0.003786
1.0271 0.5 -0.69963 0.00392767
1.0271 0.5 0.69963 0.00392771
1.24274 0.5 0.0314313 0.00410217
1.24274 0.5 -0.0314313 0.00410216
1.20942 0.5 0.29038 0.0040674
1.20942 0.5 -0.29038 0.00406737
1.11376 0.5 -0.554494 0.00398619
1.11376 0.5 0.554494 0.00398624
1.23036 0.5 -0.190445 0.00408837
1.23036 0.5 0.190445 0.00408846
1.24274 0.5 -0.0942942 0.00410099
1.24274 0.5 0.0942942 0.00410101
1.13882 0.5 0.510442 0.00400504
1.13882 0.5 -0.510442 0.00400497
0.969689 0.5 -0.7875 0.00389496
0.969689 0.5 0.7875 0.00389501
1.00005 0.5 -0.749309 0.0039101
1.00005 0.5 0.749309 0.00391017
0.939201 0.5 -0.825 0.0038812
0.939201 0.5 0.825 0.00388124
0.90582 0.5 0.8625 0.00386786
0.90582 0.5 -0.8625 0.00386781
1.17463 0.5 -0.430746 0.00403398
1.17463 0.5 0.430746 0.00403402
1.10076 0.5 -0.594676 0.00397484
1.10076 0.5 0.594676 0.00397489
1.18772 0.5 -0.393684 0.0040453
1.18772 0.5 0.393684 0.00404534
1.24274 0.5 -0.157157 0.00409878
1.24274 0.5 0.157157 0.0040988
1.16179 0.5 -0.468373 0.00402299
1.16179 0.5 0.468373 0.00402309
0.467897 0.5 -1.1625 0.0037798
0.467897 0.5 1.1625 0.00377983
0.872064 0.5 -0.9 0.00385536
0.872064 0.5 0.9 0.00385541
1.25401 0.5 2.08167e-17 0.00411042
0.835106 0.5 0.9375 0.00384335
0.835106 0.5 -0.9375 0.0038433
1.25401 0.5 -0.0622994 0.00410982
1.25401 0.5 0.0622994 0.00410994
1.08112 0.5 -0.638498 0.00395973
1.08112 0.5 0.638498 0.00395981
1.23036 0.5 -0.253927 0.00408479
1.23036 0.5 0.253927 0.0040849
0.219992 0.5 1.2375 0.00376133
0.219992 0.5 -1.2375 0.00376132
1.25309 0.5 0.121964 0.00410813
1.05695 0.5 0.685452 0.0039426
1.05695 0.5 -0.685452 0.00394249
0.797732 0.5 0.975 0.00383288
0.797732 0.5 -0.975 0.00383283
1.25401 0.5 -0.124599 0.00410809
1.20942 0.5 -0.354909 0.00406268
1.20942 0.5 0.354909 0.00406272
1.24274 0.5 -0.220019 0.00409558
1.24274 0.5 0.220019 0.0040956
0.756814 0.5 -1.0125 0.0038226
0.756813 0.5 1.0125 0.00382264
1.25401 0.5 -0.186898 0.00410532
1.25401 0.5 0.186898 0.00410537
0.411736 0.5 -1.2 0.00377479
0.411736 0.5 1.2 0.00377481
0 0.5 -1.26882 0.00375
0 0.5 1.26882 0.00375
0.0124865 0.5 1.26882 0.00375061
0.0124865 0.5 -1.26882 0.0037506
0.715434 0.5 -1.05 0.00381381
0.715434 0.5 1.05 0.00381385
1.23036 0.5 -0.31741 0.00408034
1.23036 0.5 0.31741 0.00408047
1.04168 0.5 -0.729162 0.00393084
1.04168 0.5 0.729162 0.00393089
1.18772 0.5 -0.459298 0.00403918
1.18772 0.5 0.459298 0.00403922
1.24274 0.5 -0.282882 0.00409148
1.24274 0.5 0.282882 0.00409151
0 0.5 -1.275 0.00375
0 0.5 1.275 0.00375
1.27472 0.5 -0.0306319 0.00412769
1.27472 0.5 0.0306319 0.00412769
1.17463 0.5 0.497015 0.00402726
1.17463 0.5 -0.497015 0.00402722
1.11376 0.5 -0.623806 0.00397826
1.11376 0.5 0.623806 0.0039783
1.13882 0.5 -0.578501 0.00399723
1.13882 0.5 0.578501 0.00399731
0.67013 0.5 -1.0875 0.00380519
0.67013 0.5 1.0875 0.00380523
1.27472 0.5 -0.0918959 0.00412645
1.27472 0.5 0.0918959 0.00412329
1.25401 0.5 -0.249197 0.00410158
1.25401 0.5 0.249197 0.00410166
1.16179 0.5 -0.535284 0.00401568
1.16179 0.5 0.535284 0.0040158
1.20942 0.5 -0.419438 0.00405711
1.20942 0.5 0.419438 0.00405715
0 0.5 -1.28118 0.00375
0 0.5 1.28118 0.00375
0.0124865 0.5 1.28118 0.00375059
0.0124865 0.5 -1.28118 0.00375059
1.27472 0.5 0.15316 0.00412413