# kMean  POINT_DATA 91129
# x  y  z  kMean
0 0 0 0.00566695
0 0.00368111 0 0.00375
0 0.00749587 0 0.00375
0 0.0114491 0 0.00375
0 0.0155459 0 0.00375
0 0.0197915 0 0.00375
0 0.0241911 0 0.00375
0 0.0287506 0 0.00375
0 0.0334755 0 0.00375
0 0.038372 0 0.00375
0 0.0434463 0 0.00375
0 0.0487048 0 0.00375
0 0.0541543 0 0.00375
0 0.0598016 0 0.00375
0 0.0656539 0 0.00375
0 0.0717187 0 0.00375
0.075776 0.00184055 0 0.00998369
0.075776 0.00558849 0 0.00346134
0.075776 0.00947248 -3.46945e-18 0.00306936
0.075776 0.0134975 -3.46945e-18 0.00343593
0.075776 0.0176687 3.46945e-18 0.00359369
0 0.0780037 0 0.00375
0.075776 0.0219913 3.46945e-18 0.00365434
0.075776 0.0264709 3.46945e-18 0.00368516
0.075776 0.031113 -3.46945e-18 0.0037029
0.075776 0.0359237 -3.46945e-18 0.00371416
0 0.0845169 0 0.00375
0.075776 0.0409092 0 0.00372181
0.075776 0.0460755 -3.46945e-18 0.00372729
0 0.0912666 0 0.00375
0.075776 0.0514296 -3.46945e-18 0.00373137
0.075776 0.0569779 0 0.00373448
0 0.0982613 0 0.00375
0.075776 0.0627278 0 0.003737
0.075776 0.0686863 0 0.00373913
0 0.10551 0 0.00375
0.075776 0.0748612 3.46945e-18 0.00374096
0.075776 0.0812603 -3.46945e-18 0.00374252
0 0.113022 0 0.00375
0.075776 0.0878918 3.46945e-18 0.00374384
0 0.120806 0 0.00375
0.075776 0.0947639 3.46945e-18 0.00374494
0.075776 0.101886 -3.46945e-18 0.00374587
0 0.128874 0 0.00375
0.075776 0.109266 3.46945e-18 0.00374664
0 0.137234 0 0.00375
0.075776 0.116914 3.46945e-18 0.00374728
0 0.145897 0 0.00375
0.075776 0.12484 0 0.00374782
0.151552 0 0 0.00625617
0.151552 0.00368111 0 0.00439272
0.151552 0.00749587 0 0.00260739
0.151552 0.0114491 0 0.00293157
0.151552 0.0155459 0 0.00329935
0.151552 0.0197915 0 0.00347843
0.075776 0.133054 0 0.00374829
0.151552 0.0241911 0 0.00356789
0.151552 0.0287506 0 0.00362009
0 0.154876 0 0.00375
0.151552 0.0334755 0 0.00365324
0.151552 0.038372 0 0.00367556
0.151552 0.0434463 0 0.00369127
0.151552 0.0487048 0 0.00370278
0.075776 0.141566 0 0.0037487
0.151552 0.0541543 0 0.00371147
0.151552 0.0598016 0 0.00371823
0 0.16418 0 0.00375
0.151552 0.0656539 0 0.00372364
0.151552 0.0717187 0 0.00372805
0.075776 0.150387 0 0.00374908
0.151552 0.0780037 0 0.0037317
0.151552 0.0845169 0 0.00373472
0 0.173822 0 0.00375
0.075776 0.159528 0 0.00374943
0.151552 0.0912666 0 0.00373724
0.151552 0.0982613 0 0.00373936
0 0.183814 0 0.00375
0.151552 0.10551 0 0.00374114
0.075776 0.169001 3.46945e-18 0.00374977
0.151552 0.113022 0 0.00374268
0.151552 0.120806 0 0.003744
0 0.194169 0 0.00375
0.075776 0.178818 3.46945e-18 0.0037501
0.151552 0.128874 0 0.00374514
0.075776 0.188992 3.46945e-18 0.00375042
0.151552 0.137234 0 0.00374613
0 0.2049 0 0.00375
0.151552 0.145897 0 0.00374699
0.075776 0.199535 0 0.00375074
0 0.21602 0 0.00375
0.151552 0.154876 0 0.00374774
0.219992 0.00184055 0 0.00281552
0.219992 0.00558849 0 0.00166867
0.219992 0.00947248 -3.46945e-18 0.0023314
0.219992 0.0134975 3.46945e-18 0.00293899
0.219992 0.0176687 0 0.00326196
0.219992 0.0219913 0 0.00342613
0.219993 0.0264709 -3.46945e-18 0.00352161
0.219992 0.031113 -3.46945e-18 0.00358204
0.219992 0.0359238 3.46945e-18 0.00362236
0.151552 0.16418 0 0.00374841
0.075776 0.21046 0 0.00375105
0.219992 0.0409092 3.46945e-18 0.00365042
0.219992 0.0460755 0 0.00367069
0.219993 0.0514296 -3.46945e-18 0.00368584
0.219992 0.0569779 0 0.00369749
0 0.227544 0 0.00375
0.219992 0.0627277 3.46945e-18 0.00370665
0.219992 0.0686863 0 0.00371399
0.151552 0.173822 0 0.00374901
0.219992 0.0748612 3.46945e-18 0.00371997
0.075776 0.221782 0 0.00375135
0.219992 0.0812603 3.46945e-18 0.00372488
0.219992 0.0878917 -3.46945e-18 0.00372895
0.151552 0.183814 0 0.00374956
7.47806e-17 0.239487 0 0.00375
0.219992 0.0947639 3.46945e-18 0.00373234
0.219993 0.101886 3.46945e-18 0.0037352
0.075776 0.233516 0 0.0037516
0.219993 0.109266 0 0.00373766
0.151552 0.194169 0 0.00375007
0.219993 0.116914 0 0.00373978
0 0.251863 0 0.00375
0.219993 0.12484 0 0.00374164
0.151552 0.2049 0 0.00375055
0.075776 0.245675 0 0.0037518
0.219992 0.133054 3.46945e-18 0.00374325
0.219992 0.141565 0 0.00374464
0.151552 0.21602 0 0.003751
0 0.264688 0 0.00375
0.219992 0.150387 3.46945e-18 0.00374583
0.075776 0.258275 3.46945e-18 0.00375192
0.219992 0.159528 -3.46945e-18 0.00374686
0.151552 0.227544 0 0.0037514
0.219992 0.169001 3.46945e-18 0.00374776
0 0.27798 0 0.00375
0.075776 0.271334 3.46945e-18 0.00375197
0.151552 0.239487 3.70071e-18 0.00375176
0.219992 0.178818 3.46945e-18 0.00374856
0.288433 0 0 0.00186671
0.288433 0.00368111 0 0.00159095
0.288433 0.00749587 0 0.00178372
0.288433 0.0114491 0 0.00256789
0.288433 0.0155459 3.70071e-18 0.00304736
0.288433 0.0197915 0 0.00328716
0.288433 0.0241911 3.70071e-18 0.00341067
0.288433 0.0287506 0 0.00349231
0.219992 0.188991 0 0.00374928
0.288433 0.0334755 0 0.00355106
0.288433 0.038372 0 0.00359384
0.288433 0.0434463 0 0.0036255
7.47806e-17 0.291753 0 0.00375
0.288433 0.0487048 0 0.00364941
0.288433 0.0541543 0 0.00366786
0.151552 0.251863 0 0.00375206
0.288433 0.0598016 3.70071e-18 0.00368235
0.075776 0.284866 0 0.00375197
0.288433 0.0656539 3.70071e-18 0.00369392
0.219992 0.199534 0 0.00374994
0.288433 0.0717187 0 0.00370327
0.288433 0.0780037 0 0.00371089
0.288433 0.0845169 0 0.00371717
0.288433 0.0912666 0 0.00372246
0.219992 0.21046 -3.46945e-18 0.00375054
0.288433 0.0982613 0 0.00372708
0.151552 0.264688 3.70071e-18 0.0037523
0 0.306027 0 0.00375
0.288433 0.10551 0 0.00373118
0.075776 0.29889 3.46945e-18 0.00375192
0.288433 0.113022 0 0.00373478
0.219993 0.221782 0 0.00375109
0.288433 0.120806 0 0.00373793
0.288433 0.128874 0 0.00374066
0.151552 0.27798 0 0.00375249
0.288433 0.137234 0 0.00374304
0 0.320819 0 0.00375
0.219992 0.233515 -3.46945e-18 0.00375158
0.075776 0.313423 -3.46945e-18 0.00375183
0.288433 0.145897 0 0.00374509
0.288433 0.154876 0 0.00374686
0.151552 0.291753 0 0.00375263
0.219993 0.245675 0 0.00375204
0.288433 0.16418 0 0.00374837
0 0.336148 0 0.00375
0.288433 0.173822 0 0.00374965
0.075776 0.328484 -3.46945e-18 0.00375173
0.219993 0.258275 -3.46945e-18 0.00375245
0.151552 0.306027 0 0.00375272
0.288433 0.183814 0 0.00375075
0.288433 0.194169 0 0.00375169
0.219992 0.271334 3.46945e-18 0.00375281
0.350249 0.00184056 -3.46945e-18 0.000987677
0.350249 0.00558849 0 0.000987635
0.350249 0.00947248 3.46945e-18 0.002179
0.350249 0.0134975 0 0.00283208
0.350249 0.0176687 0 0.00316422
0.350249 0.0219913 0 0.0033047
0.350249 0.0264708 3.46945e-18 0.00339953
0.350249 0.031113 0 0.00347481
0 0.352034 0 0.00375
0.350249 0.0359238 0 0.00353253
0.075776 0.344091 0 0.00375164
0.350249 0.0409091 0 0.0035763
0.350249 0.0460756 3.46945e-18 0.00360973
0.288433 0.2049 0 0.0037525
0.350249 0.0514296 0 0.00363562
0.151552 0.320819 0 0.00375279
0.350249 0.0569779 0 0.00365597
0.350249 0.0627277 3.46945e-18 0.00367218
0.350249 0.0686863 3.46945e-18 0.00368525
0.350249 0.0748612 3.46945e-18 0.00369587
0.350249 0.0812603 0 0.00370455
0.219992 0.284867 0 0.00375312
0.288433 0.21602 0 0.00375321
0.350249 0.0878917 0 0.00371173
0.350249 0.094764 0 0.00371801
0.350249 0.101886 0 0.00372374
0.350249 0.109266 0 0.00372888
0.288433 0.227544 0 0.00375384
0.075776 0.360265 3.46945e-18 0.00375163
0 0.368496 0 0.00375
0.151552 0.336148 0 0.00375285
0.350249 0.116914 3.46945e-18 0.00373339
0.219992 0.29889 0 0.00375339
0.370854 0.0241911 1.54074e-33 0.00336088
0.350249 0.12484 0 0.00373731
0.350249 0.133054 0 0.00374072
0.288433 0.239487 -9.25154e-19 0.00375441
0.350249 0.141566 3.46945e-18 0.00374369
0.350249 0.150387 3.46945e-18 0.00374624
0.288433 0.251863 0 0.00375493
0.219992 0.313423 0 0.00375362
0.151552 0.352034 0 0.00375295
0.075776 0.377027 0 0.0037517
0.350249 0.159528 0 0.00374843
0 0.385557 0 0.00375
0.350249 0.169001 0 0.00375027
0.288433 0.264688 0 0.00375541
0.350249 0.178818 0 0.0037518
0.219992 0.328484 0 0.00375383
0.350249 0.188992 0 0.00375309
0.151552 0.368496 0 0.00375311
0.288433 0.27798 3.70071e-18 0.00375587
0.075776 0.394397 0 0.00375179
0.350249 0.199535 0 0.00375415
7.47806e-17 0.403236 0 0.00375
0.219992 0.344091 0 0.00375404
0.350249 0.21046 -3.46945e-18 0.00375505
0.288433 0.291753 0 0.00375631
0.412065 9.08189e-19 3.08149e-33 0.000804693
0.412065 0.00368111 -2.31298e-18 0.000869031
0.412065 0.00749587 -2.31298e-18 0.00160052
0.412065 0.0114491 -2.31298e-18 0.00259077
0.412065 0.0155459 -2.31298e-18 0.00305087
0.412065 0.0197915 0 0.00324454
0.412065 0.0241911 -3.08149e-33 0.00333598
0.412065 0.0264709 0 0.00337013
0.412065 0.0287506 -2.31298e-18 0.00340427
0.412065 0.0334755 -2.31298e-18 0.00346703
0.412065 0.038372 -2.31298e-18 0.00352014
0.151552 0.385557 0 0.00375331
0.412065 0.0434463 0 0.00356299
0.350249 0.221782 0 0.00375583
0.412065 0.0487048 0 0.00359711
0.412065 0.0541543 -3.08149e-33 0.00362431
0.412065 0.0569779 0 0.00363522
0.412065 0.0598016 -2.31298e-18 0.00364613
0.412065 0.0656539 -2.31298e-18 0.00366373
0.412065 0.0717187 -2.31298e-18 0.00367801
0.075776 0.412396 -3.46945e-18 0.00375186
0.412065 0.0780037 -2.31298e-18 0.00368972
0.288433 0.306027 0 0.00375671
0.412065 0.0845169 -2.31298e-18 0.00369958
0.350249 0.233516 3.46945e-18 0.0037565
0 0.421557 0 0.00375
0.412065 0.0912666 -2.31298e-18 0.00370823
0.219992 0.360265 3.46945e-18 0.00375429
0.412065 0.0982613 0 0.00371602
0.412065 0.10551 0 0.00372308
0.412065 0.113022 -2.31298e-18 0.00372938
0.350249 0.245675 0 0.00375712
0.412065 0.120806 0 0.00373493
0.151552 0.403236 0 0.00375352
0.288433 0.320819 0 0.0037571
0.412065 0.128874 -2.31298e-18 0.0037398
0.412065 0.137234 0 0.00374404
0.350249 0.258275 -3.46945e-18 0.00375771
0.219992 0.377026 0 0.00375459
0.412065 0.145897 -2.31298e-18 0.0037477
0.075776 0.431051 0 0.0037519
0.412065 0.154876 -2.31298e-18 0.00375084
0 0.440544 0 0.00375
0.288433 0.336148 0 0.00375748
0.350249 0.271334 0 0.00375829
0.412065 0.16418 -2.31298e-18 0.00375349
0.412065 0.173822 -2.31298e-18 0.00375573
0.151552 0.421557 0 0.00375372
0.412065 0.183814 -2.31298e-18 0.00375761
0.350249 0.284867 3.46945e-18 0.00375886
0.219992 0.394397 0 0.00375492
0.288433 0.352034 3.70071e-18 0.00375786
0.412065 0.194169 0 0.00375916
0.075776 0.450382 0 0.00375192
0.412065 0.2049 -2.31298e-18 0.00376045
0 0.46022 0 0.00375
0.350249 0.29889 3.46945e-18 0.00375942
0.412065 0.21602 0 0.00376153
0.151552 0.440544 0 0.0037539
0.219993 0.412396 3.46945e-18 0.00375526
0.467897 0.00184056 -3.46945e-18 0.000634477
0.467897 0.00558849 0 0.00088288
0.288433 0.368496 0 0.00375827
0.467897 0.00947248 0 0.0023502
0.467897 0.0134975 0 0.00298995
0.467897 0.0176687 3.46945e-18 0.00320991
0.467897 0.0219913 -3.46945e-18 0.00329794
0.467897 0.0264709 3.46945e-18 0.00334401
0.467897 0.0311131 3.46945e-18 0.0034033
0.467897 0.0359238 -3.46945e-18 0.00346257
0.467897 0.038372 0 0.00349224
0.467897 0.0409092 3.46945e-18 0.00351392
0.350249 0.313423 0 0.00375996
0.467897 0.0460755 0 0.00355619
0.467897 0.0514296 3.46945e-18 0.00359045
0.412065 0.227544 -2.31298e-18 0.00376243
0.467897 0.0569779 0 0.00361818
0.467897 0.0627277 -3.46945e-18 0.00364066
0.467897 0.0686863 3.46945e-18 0.00365893
0.467897 0.0748612 0 0.00367376
0.467897 0.0812603 0 0.00368615
0.467897 0.0878918 3.46945e-18 0.00369708
0.075776 0.470415 3.46945e-18 0.00375194
0.412065 0.239487 -2.31298e-18 0.00376322
0.467897 0.0947639 -3.46945e-18 0.003707
0.467897 0.101886 3.46945e-18 0.00371601
0.350249 0.328483 0 0.0037605
0.467897 0.109266 0 0.00372412
0 0.48061 0 0.00375
0.288433 0.385557 0 0.0037587
0.467897 0.116914 0 0.00373136
0.412065 0.251863 -2.31298e-18 0.00376392
0.219992 0.431051 0 0.00375559
0.467897 0.12484 0 0.00373774
0.151552 0.46022 0 0.00375407
0.467897 0.133054 3.46945e-18 0.00374333
0.467897 0.141566 3.46945e-18 0.00374817
0.412065 0.264688 -2.31298e-18 0.00376458
0.350249 0.344091 -3.46945e-18 0.00376103
0.467897 0.150387 3.46945e-18 0.00375233
0.467897 0.154876 0 0.00375564
0.467897 0.159528 3.46945e-18 0.00375586
0.288433 0.403236 0 0.00375916
0.075776 0.491175 0 0.00375195
0.412065 0.27798 -2.31298e-18 0.0037652
0.467897 0.169001 0 0.00375884
0.467897 0.178818 3.46945e-18 0.00376136
0.219992 0.450382 0 0.0037559
6.73026e-17 0.501741 3.70071e-18 0.00375
0.350249 0.360265 0 0.00376155
0.151552 0.48061 0 0.00375422
0.467897 0.188991 0 0.00376346
0.412065 0.291753 0 0.0037658
0.467897 0.199535 0 0.00376518
0.288433 0.421557 0 0.00375962
0.467897 0.21046 0 0.0037666
0.412065 0.306027 0 0.00376639
0.350249 0.377027 0 0.00376209
0.467897 0.221782 3.46945e-18 0.00376778
0.075776 0.51269 0 0.00375198
0.219993 0.470415 3.46945e-18 0.00375618
0.467897 0.227544 0 0.00377004
0.412065 0.320819 -2.31298e-18 0.00376697
0.467897 0.233515 0 0.00376876
6.73026e-17 0.523639 3.70071e-18 0.00375
0.523729 0 0 0.000540541
0.523729 0.00368111 0 0.000696359
0.523729 0.00749587 -2.31298e-18 0.00166741
0.523729 0.0114491 0 0.00282263
0.523729 0.0155459 0 0.00323242
0.523729 0.0197915 -2.31298e-18 0.00332089
0.151552 0.501741 0 0.00375437
0.523729 0.0241911 0 0.00334528
0.523729 0.0287506 0 0.00336942
0.523729 0.0334755 0 0.00341347
0.523729 0.038372 -3.08149e-33 0.00346434
0.523729 0.0434463 0 0.00351159
0.523729 0.0487048 0 0.00355215
0.523729 0.0541543 0 0.00358598
0.288433 0.440544 0 0.00376007
0.523729 0.0598016 0 0.00361388
0.350249 0.394397 -3.46945e-18 0.00376265
0.523729 0.0656539 0 0.00363679
0.467897 0.245675 0 0.00376961
0.523729 0.0717187 0 0.00365558
0.523729 0.0780037 0 0.0036713
0.523729 0.0845169 0 0.0036851
0.523729 0.0912666 0 0.00369762
0.412065 0.336148 0 0.00376754
0.523729 0.0982613 0 0.003709
0.523729 0.10551 -2.31298e-18 0.00371929
0.467897 0.258275 -3.46945e-18 0.00377036
0.523729 0.113022 0 0.00372852
0.523729 0.120806 -3.08149e-33 0.00373673
0.219993 0.491176 0 0.00375645
0.523729 0.12484 0 0.00374035
0.523729 0.128874 -2.31298e-18 0.00374397
0.075776 0.534986 0 0.00375201
0.467897 0.271334 3.46945e-18 0.00377105
0.350249 0.412396 -3.46945e-18 0.00376322
0.523729 0.137234 0 0.00375029
0.412065 0.352034 -2.31298e-18 0.00376811
0.288433 0.46022 0 0.0037605
0.523729 0.145897 0 0.00375576
0.151552 0.523639 0 0.00375452
0.523729 0.154876 -3.08149e-33 0.00376045
0 0.546332 0 0.00375
0.523729 0.159528 0 0.00376244
0.467897 0.284867 -3.46945e-18 0.0037717
0.523729 0.16418 -2.31298e-18 0.00376443
0.523729 0.173822 0 0.00376778
0.412065 0.368496 0 0.00376869
0.523729 0.183814 0 0.00377059
0.467897 0.29889 0 0.00377232
0.350249 0.431051 -3.46945e-18 0.0037638
0.219992 0.51269 0 0.00375672
0.523729 0.194169 0 0.00377291
0.288433 0.48061 0 0.00376091
0.523729 0.2049 0 0.00377481
0.467897 0.313423 3.46945e-18 0.00377294
0.075776 0.558091 0 0.00375205
0.412065 0.385557 0 0.00376929
0.523729 0.21602 -3.08149e-33 0.00377637
0.151552 0.546332 0 0.00375467
0 0.569849 0 0.00375
0.350249 0.450382 3.46945e-18 0.00376437
0.523729 0.227544 -3.08149e-33 0.00377765
0.467897 0.328483 0 0.00377354
0.523729 0.231525 1.54074e-33 0.003778
0.574156 0.00184056 0 0.000452769
0.574156 0.00558849 0 0.000823492
0.574157 0.00947248 0 0.00260645
0.574156 0.0134975 -3.46945e-18 0.00332393
0.574156 0.0176687 -3.46945e-18 0.00338854
0.574156 0.0219913 0 0.00337839
0.574156 0.0264708 -3.46945e-18 0.00335758
0.574156 0.031113 0 0.00337334
0.574156 0.0359238 -3.46945e-18 0.00341724
0.574157 0.0409092 0 0.00346676
0.523729 0.239487 3.70071e-18 0.00377871
0.574156 0.0460755 -3.46945e-18 0.00351258
0.574156 0.0514295 0 0.00355218
0.412065 0.403236 0 0.0037699
0.574157 0.0569779 0 0.0035855
0.574156 0.0627277 0 0.00361322
0.574156 0.0686863 0 0.00363608
0.219992 0.534986 0 0.00375698
0.288433 0.501741 0 0.00376129
0.574156 0.0748612 3.46945e-18 0.00365497
0.574156 0.0812603 0 0.00367144
0.467897 0.344091 0 0.00377415
0.574156 0.0878917 3.46945e-18 0.00368657
0.523729 0.251863 0 0.0037796
0.574157 0.0947639 0 0.00370039
0.574156 0.101886 0 0.00371292
0.574156 0.109266 0 0.00372421
0.574156 0.116914 0 0.0037343
0.412065 0.416977 -6.16298e-33 0.00377037
0.350249 0.470415 0 0.00376491
0.523729 0.264688 0 0.00378038
0.075776 0.582034 0 0.0037521
0.574156 0.12484 0 0.00374325
0.574156 0.133054 3.46945e-18 0.00375112
0.412065 0.421557 -2.31298e-18 0.00377053
0.151552 0.569849 0 0.00375482
0.467897 0.360265 -3.46945e-18 0.00377477
0.574157 0.141566 -3.46945e-18 0.00375797
0.523729 0.27798 0 0.00378108
0.574156 0.150386 3.46945e-18 0.00376387
0 0.594219 0 0.00375
0.574156 0.159528 -3.46945e-18 0.00376891
0.574156 0.16418 0 0.00377249
0.288433 0.523639 1.2326e-32 0.00376166
0.574157 0.169001 0 0.00377317
0.523729 0.291753 0 0.00378172
0.219993 0.558091 3.46945e-18 0.00375723
0.467897 0.377026 0 0.0037754
0.574156 0.178818 3.46945e-18 0.00377675
0.412065 0.440544 -2.31298e-18 0.00377116
0.350249 0.491175 0 0.00376542
0.574156 0.188992 3.46945e-18 0.00377971
0.523729 0.306027 -3.08149e-33 0.00378234
0.574157 0.199535 0 0.00378215
0.574157 0.21046 0 0.00378414
0.075776 0.606847 0 0.00375216
0.467897 0.394397 0 0.00377605
0.151552 0.594219 0 0.00375498
0.523729 0.320819 0 0.00378293
0.574157 0.221782 -3.46945e-18 0.00378576
0.412065 0.46022 3.08149e-33 0.00377177
0.288433 0.546332 0 0.00376202
0 0.619475 0 0.00375
0.574156 0.233515 3.46945e-18 0.00378707
0.350249 0.51269 3.46945e-18 0.0037659
0.219992 0.582034 3.46945e-18 0.00375749
0.523729 0.336148 0 0.00378352
0.467897 0.412396 0 0.00377673
0.574156 0.245675 0 0.00378815
0.624584 0 0 0.000386829
0.624584 0.00368111 0 0.000596292
0.624584 0.00749587 0 0.00177327
0.624584 0.0114491 0 0.00314954
0.624584 0.0155459 0 0.00356098
0.624584 0.0197915 0 0.00351484
0.624584 0.0241911 -2.31298e-18 0.00343099
0.624584 0.0287506 0 0.00338851
0.624584 0.0334755 0 0.00339472
0.624584 0.038372 0 0.00343001
0.624584 0.0434463 -2.31298e-18 0.00347398
0.624584 0.0487048 0 0.00351665
0.624584 0.0541543 0 0.00355458
0.624584 0.0598016 0 0.00358706
0.624584 0.0656539 0 0.00361433
0.624584 0.0717187 0 0.00363718
0.624584 0.0780037 0 0.00365696
0.574157 0.258276 3.46945e-18 0.00378905
0.624584 0.0845169 0 0.00367488
0.523729 0.352034 0 0.00378412
0.624584 0.0912666 0 0.00369136
0.624584 0.0982613 0 0.00370641
0.412065 0.48061 3.08149e-33 0.00377236
0.624584 0.10551 0 0.00372005
0.624584 0.113022 -2.31298e-18 0.00373232
0.574156 0.271334 0 0.00378982
0.624584 0.120806 0 0.00374327
0.467897 0.431051 0 0.00377741
0.075776 0.632561 -3.46945e-18 0.00375222
0.624584 0.128874 0 0.00375296
0.151552 0.619475 0 0.00375514
0.288433 0.569849 0 0.00376237
0.350249 0.534985 0 0.00376636
0.624584 0.137234 -2.31298e-18 0.00376145
0.523729 0.368496 0 0.00378473
0.574156 0.284866 -3.46945e-18 0.0037905
0.624584 0.145897 0 0.00376883
0.467897 0.440544 0 0.00377926
0.624584 0.154876 0 0.00377517
0.219992 0.606847 -3.46945e-18 0.00375775
0 0.645647 0 0.00375
0.624584 0.16418 -3.08149e-33 0.00378056
0.574156 0.29889 -3.46945e-18 0.00379112
0.624584 0.173822 0 0.00378511
0.412065 0.501741 1.54074e-33 0.00377292
0.467897 0.450382 -3.46945e-18 0.00377809
0.523729 0.385557 0 0.00378536
0.624584 0.183814 0 0.0037889
0.624584 0.194169 0 0.00379203
0.574156 0.313423 0 0.00379171
0.624584 0.2049 0 0.00379459
0.350249 0.558091 3.46945e-18 0.00376681
0.288433 0.594219 0 0.00376271
0.624584 0.21602 0 0.00379666
0.523729 0.403236 0 0.00378601
0.574156 0.328483 -3.46945e-18 0.00379228
0.151552 0.645647 0 0.00375531
0.467897 0.470415 3.46945e-18 0.00377876
0.075776 0.659208 0 0.00375229
0.624584 0.227544 0 0.00379833
0.412065 0.523639 0 0.00377344
0.523729 0.41545 3.08149e-33 0.00378646
0.624584 0.239487 3.70071e-18 0.00379968
0.574156 0.344091 0 0.00379286
0.219992 0.632561 0 0.003758
0.67013 0.00184055 0 0.000324924
0.67013 0.00558849 0 0.000789112
0.67013 0.00947248 0 0.00286696
0.67013 0.0134975 0 0.00377833
0.67013 0.0176687 -3.46945e-18 0.00372809
0.67013 0.0219913 0 0.00354829
0.67013 0.0264708 3.46945e-18 0.00343199
0.67013 0.0311131 0 0.00338832
0.67013 0.0359237 0 0.00340006
0.67013 0.0409092 -3.46945e-18 0.00343744
0.67013 0.0460755 0 0.00348107
0.67013 0.0514296 3.46945e-18 0.00352272
0.523729 0.421557 -2.31298e-18 0.00378668
0.67013 0.056978 0 0.00355967
0 0.67277 0 0.00375
0.67013 0.0627277 0 0.00359136
0.624584 0.251863 0 0.00380076
0.67013 0.0686863 0 0.00361794
0.67013 0.0748612 3.46945e-18 0.00364075
0.67013 0.0812603 0 0.00366144
0.67013 0.0878917 0 0.00368058
0.67013 0.0947639 3.46945e-18 0.00369817
0.574156 0.360265 0 0.00379344
0.67013 0.101886 0 0.0037142
0.523729 0.431051 0 0.00378702
0.624584 0.264688 0 0.00380166
0.467897 0.491175 0 0.00377939
0.67013 0.109266 3.46945e-18 0.0037287
0.350249 0.582034 0 0.00376723
0.67013 0.116914 0 0.00374171
0.67013 0.12484 0 0.00375328
0.67013 0.133054 0 0.00376349
0.288433 0.619475 0 0.00376304
0.624584 0.27798 -3.08149e-33 0.0038024
0.412065 0.546332 1.54074e-33 0.00377394
0.523729 0.440544 -3.08149e-33 0.00378736
0.67013 0.141566 3.46945e-18 0.0037724
0.685312 0.0241911 -7.70372e-34 0.00354481
0.685312 0.0434463 -7.70372e-34 0.00345999
0.67013 0.150387 0 0.00378011
0.574156 0.377026 -3.46945e-18 0.00379405
0.67013 0.159528 0 0.00378671
0.624584 0.291753 0 0.00380305
0.151552 0.67277 0 0.00375546
0.075776 0.686823 0 0.00375236
0.67013 0.169001 0 0.0037923
0.67013 0.178818 0 0.00379699
0.467897 0.51269 0 0.00377998
0.685312 0.113022 -7.70372e-34 0.00373761
0.219992 0.659208 0 0.00375825
0.624584 0.306027 0 0.00380363
0.67013 0.188991 0 0.00380087
0.574156 0.394397 3.46945e-18 0.00379468
0.523729 0.46022 0 0.00378804
0.685312 0.137234 -7.70372e-34 0.00377172
0.67013 0.199535 -3.46945e-18 0.00380406
0.350249 0.606847 0 0.00376764
0 0.700877 0 0.00375
0.624584 0.320819 0 0.00380417
0.67013 0.21046 0 0.00380664
0.412065 0.569849 -2.31298e-18 0.00377441
0.67013 0.221782 -3.46945e-18 0.00380871
0.574157 0.412396 0 0.00379534
0.288433 0.645647 0 0.00376336
0.624584 0.336148 -3.08149e-33 0.0038047
0.67013 0.233515 3.46945e-18 0.00381036
0.467897 0.534986 0 0.00378054
0.523729 0.48061 0 0.00378869
0.624584 0.344091 0 0.00380496
0.67013 0.245675 0 0.00381167
0.715676 4.54095e-19 0 0.000274673
0.715676 0.00368111 0 0.000526642
0.715676 0.00749587 0 0.00188771
0.715676 0.0114491 0 0.00351933
0.715676 0.0155459 0 0.00400667
0.715676 0.0197915 0 0.00383176
0.715676 0.0241911 0 0.00360172
0.715676 0.0287506 0 0.0034671
0.715676 0.0334755 0 0.00341574
0.715676 0.038372 0 0.00342118
0.624584 0.352034 -2.31298e-18 0.00380523
0.715676 0.0434463 0 0.003453
0.151552 0.700877 0 0.00375562
0.715676 0.0487048 0 0.00349261
0.715676 0.0541543 0 0.00353163
0.574156 0.43105 0 0.00379602
0.715676 0.0598016 0 0.00356686
0.67013 0.258275 0 0.00381272
0.715676 0.0656539 0 0.00359736
0.715676 0.0717187 0 0.00362367
0.075776 0.715441 0 0.00375243
0.715676 0.0780037 0 0.00364728
0.715676 0.0845169 0 0.00366914
0.219992 0.686824 0 0.00375849
0.715676 0.0912666 0 0.00368939
0.715676 0.0982613 0 0.003708
0.67013 0.271334 -3.46945e-18 0.00381356
0.350249 0.632561 -3.46945e-18 0.00376803
0.412065 0.594219 3.08149e-33 0.00377486
0.715676 0.10551 0 0.00372495
0.715676 0.113022 0 0.00374026
0.624584 0.368496 0 0.00380578
0.523729 0.501741 0 0.0037893
0.715676 0.120806 0 0.00375398
0.715676 0.128874 0 0.00376615
0.67013 0.284867 0 0.00381425
0.467897 0.558091 3.46945e-18 0.00378106
0.715676 0.137234 0 0.00377686
0.574156 0.450382 0 0.0037967
0 0.730005 0 0.00375
0.715676 0.145897 0 0.00378618
0.288433 0.67277 0 0.00376366
0.715676 0.154876 0 0.00379422
0.67013 0.29889 0 0.00381484
0.624584 0.385557 0 0.00380634
0.715676 0.16418 -9.25187e-19 0.00380107
0.715676 0.173822 0 0.00380686
0.715676 0.183814 0 0.00381168
0.67013 0.313423 0 0.00381536
0.523729 0.523639 0 0.00378988
0.715676 0.194169 0 0.00381565
0.574156 0.470415 3.46945e-18 0.00379737
0.624584 0.403236 0 0.00380694
0.743101 0.0241911 -7.70372e-34 0.00369413
0.412065 0.619475 3.08149e-33 0.00377527
0.715676 0.2049 0 0.00381888
0.151552 0.730005 0 0.00375578
0.67013 0.328484 3.46945e-18 0.00381586
0.350249 0.659208 0 0.0037684
0.467897 0.582034 0 0.00378155
0.715676 0.21602 0 0.00382148
0.219992 0.715441 0 0.00375873
0.075776 0.745097 -3.46945e-18 0.0037525
0.715676 0.227544 0 0.00382354
0.67013 0.344091 0 0.00381634
0.624584 0.421557 0 0.00380756
0.743101 0.128874 -7.70372e-34 0.00377173
0.715676 0.239487 3.70071e-18 0.00382517
0.574156 0.491175 0 0.00379801
0.756814 0.00184055 0 0.000227261
0.523729 0.546332 0 0.00379041
0.756813 0.00558849 0 0.000768717
0.756813 0.00947248 0 0.00311943
0.756814 0.0134975 -3.46945e-18 0.00429045
0.756814 0.0155459 0 0.00426524
0.756814 0.0176687 0 0.00420119
0.756814 0.0219913 0 0.00382761
0.756814 0.0264709 0 0.00358638
0.756814 0.031113 -3.46945e-18 0.00345527
0.756813 0.0359238 -3.46945e-18 0.0034169
0.288433 0.700877 0 0.00376395
0.756814 0.0409092 -3.46945e-18 0.00343005
0.756813 0.0460755 3.46945e-18 0.00346414
0.756813 0.0514296 0 0.00350358
0.715676 0.251863 0 0.00382644
0.756813 0.0569779 0 0.00354165
0.756814 0.0627277 -3.46945e-18 0.00357574
0.756814 0.0686863 -3.46945e-18 0.00360521
0 0.76019 0 0.00375
0.756814 0.0748612 0 0.00363142
0.67013 0.360265 3.46945e-18 0.00381683
0.756814 0.0812603 -3.46945e-18 0.00365594
0.756814 0.0878917 -3.46945e-18 0.00367883
0.756814 0.0947639 -3.46945e-18 0.0037
0.715676 0.264688 0 0.00382742
0.756813 0.101886 0 0.00371942
0.624584 0.440544 0 0.00380819
0.756813 0.109266 3.46945e-18 0.00373708
0.756813 0.116914 3.46945e-18 0.00375299
0.412065 0.645647 0 0.00377566
0.467897 0.606847 0 0.003782
0.756814 0.120806 0 0.0037611
0.756813 0.12484 0 0.0037672
0.715676 0.27798 0 0.0038282
0.756814 0.133054 -3.46945e-18 0.00377977
0.67013 0.377026 -3.46945e-18 0.00381733
0.756814 0.137234 0 0.00378633
0.574156 0.51269 0 0.00379861
0.756813 0.141566 3.46945e-18 0.00379078
0.685312 0.352034 -7.70372e-34 0.00382216
0.743101 0.2049 -7.70372e-34 0.00382819
0.350249 0.686824 0 0.00376875
0.756814 0.150387 0 0.00380033
0.756814 0.154876 0 0.00380553
0.715676 0.291753 0 0.00382882
0.756814 0.159528 -3.46945e-18 0.00380852
0.523729 0.569849 0 0.0037909
0.72743 0.264688 0 0.00383163
0.756814 0.16418 0 0.00381312
0.151552 0.76019 0 0.00375593
0.756813 0.169001 3.46945e-18 0.00381547
0.624584 0.46022 0 0.00380882
0.219993 0.745097 0 0.00375896
0.67013 0.394396 0 0.00381787
0.756813 0.178818 -3.46945e-18 0.0038213
0.715676 0.306027 0 0.00382934
0.075776 0.775831 0 0.00375257
0.756813 0.188991 0 0.00382612
0.756814 0.199535 0 0.00383007
0.715676 0.320819 0 0.00382979
0.574156 0.534985 0 0.00379916
0.288433 0.730005 0 0.00376423
0.756813 0.21046 0 0.00383325
0.467897 0.632561 0 0.00378242
0.67013 0.412396 -3.46945e-18 0.00381843
0.624584 0.48061 -3.08149e-33 0.00380944
0.756814 0.221782 0 0.00383578
0.412065 0.67277 3.08149e-33 0.00377602
0.715676 0.336148 0 0.00383021
0 0.791472 0 0.00375
0.756813 0.233516 3.46945e-18 0.00383776
0.523729 0.594219 0 0.00379134
0.624584 0.487654 1.54074e-33 0.00380963
0.756814 0.245675 3.46945e-18 0.0038393
0.350249 0.715441 3.46945e-18 0.00376907
0.67013 0.43105 0 0.00381902
0.715676 0.352034 -9.25187e-19 0.00383062
0.797951 9.08189e-19 -3.08149e-33 0.000189737
0.797951 0.00368111 2.31298e-18 0.000475995
0.797951 0.00749587 2.31298e-18 0.0019997
0.797951 0.0114491 2.31298e-18 0.0038949
0.797951 0.0141803 7.70372e-34 0.00431418
0.797951 0.0155459 0 0.00452382
0.797951 0.0169611 7.70372e-34 0.00443892
0.797951 0.0197915 2.31298e-18 0.00426913
0.797951 0.0219913 0 0.00407405
0.797951 0.0241911 3.08149e-33 0.00387897
0.797951 0.0264709 0 0.00374861
0.797951 0.0287506 -3.08149e-33 0.00361826
0.797951 0.0334755 2.31298e-18 0.0034839
0.797951 0.038372 2.31298e-18 0.00344265
0.797951 0.0434463 2.31298e-18 0.00345168
0.797951 0.0487048 0 0.00348184
0.756813 0.258275 -3.46945e-18 0.00384047
0.797951 0.0541543 2.31298e-18 0.00351817
0.797951 0.0598016 2.31298e-18 0.00355385
0.797951 0.0656539 2.31298e-18 0.00358623
0.574156 0.55809 0 0.00379966
0.624584 0.501741 0 0.00381001
0.797951 0.0717187 2.31298e-18 0.00361529
0.797951 0.0780037 -3.08149e-33 0.00364223
0.797951 0.0845169 2.31298e-18 0.00366763
0.797951 0.0912666 -3.08149e-33 0.00369137
0.797951 0.0982613 2.31298e-18 0.00371334
0.756813 0.271334 0 0.00384136
0.797951 0.10551 2.31298e-18 0.00373348
0.715676 0.368496 0 0.00383105
0.151552 0.791472 0 0.00375608
0.797951 0.113022 2.31298e-18 0.00375177
0.219992 0.775831 3.46945e-18 0.00375918
0.797951 0.118211 7.70372e-34 0.00376274
0.770526 0.239487 1.54074e-33 0.0038446
0.797951 0.120806 0 0.00376822
0.67013 0.450382 3.46945e-18 0.00381961
0.797951 0.128874 3.08149e-33 0.00378287
0.467897 0.659208 0 0.0037828
0.756813 0.284866 -3.46945e-18 0.00384203
0.743101 0.320819 -7.70372e-34 0.00383957
0.797951 0.137234 0 0.0037958
0.797951 0.141566 0 0.00380144
0.797951 0.145897 -9.25187e-19 0.00380709
0.523729 0.619475 0 0.00379175
0.075776 0.807681 0 0.00375264
0.797951 0.150387 0 0.00381196
0.797951 0.154876 0 0.00381684
0.715676 0.385557 0 0.00383149
0.412065 0.700877 3.08149e-33 0.00377635
0.288433 0.76019 0 0.00376448
0.756813 0.29889 0 0.00384256
0.797951 0.16418 0 0.00382517
0.624584 0.523639 0 0.00381054
0.797951 0.167394 7.70372e-34 0.00382751
0.797951 0.173822 2.31298e-18 0.0038322
0.574156 0.582034 0 0.00380011
0.67013 0.470415 0 0.0038202
0.797951 0.183814 2.31298e-18 0.00383807
0.756813 0.313423 -3.46945e-18 0.00384299
0.797951 0.194169 -9.25187e-19 0.00384289
0.715676 0.403236 0 0.00383196
0.151552 0.807681 0 0.00375615
0.797951 0.197746 -7.70372e-34 0.0038442
0.350249 0.745097 0 0.00376938
0.797951 0.2049 3.08149e-33 0.00384681
0 0.823889 0 0.00375
0.756813 0.328483 -3.46945e-18 0.00384336
0.797951 0.21046 0 0.00384838
0.797951 0.21602 -3.08149e-33 0.00384994
0.797951 0.223703 7.70372e-34 0.00385158
0.797951 0.227544 9.25187e-19 0.00385241
0.624584 0.546332 0 0.00381102
0.715676 0.421557 0 0.00383246
0.67013 0.491176 -3.46945e-18 0.00382077
0.797951 0.231525 7.70372e-34 0.00385304
0.467897 0.686824 -3.46945e-18 0.00378315
0.523729 0.645647 0 0.00379211
0.756813 0.344091 -3.46945e-18 0.00384371
0.822721 0.120806 7.70372e-34 0.00377392
0.797951 0.239487 -3.08149e-33 0.00385432
0.822721 0.137234 7.70372e-34 0.00380305
0.835106 0.00184056 0 0.000154151
0.835106 0.00558849 0 0.000756146
0.835106 0.00947248 0 0.00334887
0.835106 0.0134975 0 0.00480132
0.835107 0.0176687 0 0.00477363
0.835106 0.0219913 -3.46945e-18 0.0042478