# nutMean  POINT_DATA 91129
# x  y  z  nutMean
0 0 0 5.05989e-06
0 0.00368111 0 1.85828e-05
0 0.00749587 0 7.42788e-05
0 0.0114491 0 0.000274927
0 0.0155459 0 0.000716009
0 0.0197915 0 0.0018356
0 0.0241911 0 0.00273349
0 0.0287506 0 0.00303501
0 0.0334755 0 0.00344049
0 0.038372 0 0.00372255
0 0.0434463 0 0.00392396
0 0.0487048 0 0.00408202
0 0.0541543 0 0.00421766
0 0.0598016 0 0.00434499
0 0.0656539 0 0.00447516
0 0.0717187 0 0.0046109
0.075776 0.00184055 0 9.07368e-06
0.075776 0.00558849 0 1.32877e-05
0.075776 0.00947248 -3.46945e-18 6.33954e-05
0.075776 0.0134975 -3.46945e-18 0.00029953
0.075776 0.0176687 3.46945e-18 0.000861619
0 0.0780037 0 0.00475006
0.075776 0.0219913 3.46945e-18 0.00174315
0.075776 0.0264709 3.46945e-18 0.0029476
0.075776 0.031113 -3.46945e-18 0.00444876
0.075776 0.0359237 -3.46945e-18 0.00619332
0 0.0845169 0 0.00489211
0.075776 0.0409092 0 0.00811432
0.075776 0.0460755 -3.46945e-18 0.0101408
0 0.0912666 0 0.00503716
0.075776 0.0514296 -3.46945e-18 0.0122035
0.075776 0.0569779 0 0.0142255
0 0.0982613 0 0.00518442
0.075776 0.0627278 0 0.0151508
0.075776 0.0686863 0 0.0156332
0 0.10551 0 0.00533233
0.075776 0.0748612 3.46945e-18 0.0161722
0.075776 0.0812603 -3.46945e-18 0.0167728
0 0.113022 0 0.00547891
0.075776 0.0878918 3.46945e-18 0.0174428
0 0.120806 0 0.00562541
0.075776 0.0947639 3.46945e-18 0.0181953
0.075776 0.101886 -3.46945e-18 0.0190565
0 0.128874 0 0.00578472
0.075776 0.109266 3.46945e-18 0.0200786
0 0.137234 0 0.00597522
0.075776 0.116914 3.46945e-18 0.0213289
0 0.145897 0 0.00620014
0.075776 0.12484 0 0.0228819
0.151552 0 0 0
0.151552 0.00368111 0 7.46448e-06
0.151552 0.00749587 0 2.5502e-05
0.151552 0.0114491 0 0.000113269
0.151552 0.0155459 0 0.000358685
0.151552 0.0197915 0 0.000818314
0.075776 0.133054 0 0.0247445
0.151552 0.0241911 0 0.00150542
0.151552 0.0287506 0 0.00241908
0 0.154876 0 0.00644866
0.151552 0.0334755 0 0.00354233
0.151552 0.038372 0 0.00484651
0.151552 0.0434463 0 0.00629663
0.151552 0.0487048 0 0.00785544
0.075776 0.141566 0 0.0265459
0.151552 0.0541543 0 0.00948313
0.151552 0.0598016 0 0.0109026
0 0.16418 0 0.00671429
0.151552 0.0656539 0 0.0120118
0.151552 0.0717187 0 0.0130802
0.075776 0.150387 0 0.0279834
0.151552 0.0780037 0 0.0142186
0.151552 0.0845169 0 0.015415
0 0.173822 0 0.00699629
0.075776 0.159528 0 0.0288165
0.151552 0.0912666 0 0.0166541
0.151552 0.0982613 0 0.0178872
0 0.183814 0 0.00729287
0.151552 0.10551 0 0.0190174
0.075776 0.169001 3.46945e-18 0.0289111
0.151552 0.113022 0 0.0201139
0.151552 0.120806 0 0.0212247
0 0.194169 0 0.00760067
0.075776 0.178818 3.46945e-18 0.0283224
0.151552 0.128874 0 0.0224966
0.075776 0.188992 3.46945e-18 0.0272504
0.151552 0.137234 0 0.0239319
0 0.2049 0 0.00791325
0.151552 0.145897 0 0.0252732
0.075776 0.199535 0 0.0259232
0 0.21602 0 0.00822221
0.151552 0.154876 0 0.0264005
0.219992 0.00184055 0 2.60441e-06
0.219992 0.00558849 0 5.46391e-06
0.219992 0.00947248 -3.46945e-18 2.18366e-05
0.219992 0.0134975 3.46945e-18 7.88068e-05
0.219992 0.0176687 0 0.000228923
0.219992 0.0219913 0 0.000514035
0.219993 0.0264709 -3.46945e-18 0.000946092
0.219992 0.031113 -3.46945e-18 0.00153061
0.219992 0.0359238 3.46945e-18 0.0022702
0.151552 0.16418 0 0.027165
0.075776 0.21046 0 0.0244642
0.219992 0.0409092 3.46945e-18 0.00316306
0.219992 0.0460755 0 0.00420374
0.219993 0.0514296 -3.46945e-18 0.0053838
0.219992 0.0569779 0 0.00669347
0 0.227544 0 0.00857332
0.219992 0.0627277 3.46945e-18 0.00812278
0.219992 0.0686863 0 0.00966018
0.151552 0.173822 0 0.0274978
0.219992 0.0748612 3.46945e-18 0.0112892
0.075776 0.221782 0 0.0229368
0.219992 0.0812603 3.46945e-18 0.0129867
0.219992 0.0878917 -3.46945e-18 0.0147178
0.151552 0.183814 0 0.0274403
7.47806e-17 0.239487 0 0.0090266
0.219992 0.0947639 3.46945e-18 0.0164396
0.219993 0.101886 3.46945e-18 0.0179708
0.075776 0.233516 0 0.0219568
0.219993 0.109266 0 0.0190483
0.151552 0.194169 0 0.0270965
0.219993 0.116914 0 0.0200906
0 0.251863 0 0.00955672
0.219993 0.12484 0 0.0207327
0.151552 0.2049 0 0.0265572
0.075776 0.245675 0 0.0215917
0.219992 0.133054 3.46945e-18 0.0218294
0.219992 0.141565 0 0.0228709
0.151552 0.21602 0 0.0258727
0 0.264688 0 0.0101282
0.219992 0.150387 3.46945e-18 0.0239985
0.075776 0.258275 3.46945e-18 0.0213973
0.219992 0.159528 -3.46945e-18 0.0251105
0.151552 0.227544 0 0.0252087
0.219992 0.169001 3.46945e-18 0.0260827
0 0.27798 0 0.0107426
0.075776 0.271334 3.46945e-18 0.0213329
0.151552 0.239487 3.70071e-18 0.0247331
0.219992 0.178818 3.46945e-18 0.0268468
0.288433 0 0 0
0.288433 0.00368111 0 3.08299e-06
0.288433 0.00749587 0 1.14101e-05
0.288433 0.0114491 0 3.98275e-05
0.288433 0.0155459 3.70071e-18 0.000115718
0.288433 0.0197915 0 0.000279804
0.288433 0.0241911 3.70071e-18 0.000558025
0.288433 0.0287506 0 0.000959843
0.219992 0.188991 0 0.0273946
0.288433 0.0334755 0 0.00149272
0.288433 0.038372 0 0.00215854
0.288433 0.0434463 0 0.00295628
7.47806e-17 0.291753 0 0.0114028
0.288433 0.0487048 0 0.00388228
0.288433 0.0541543 0 0.00493068
0.151552 0.251863 0 0.0243664
0.288433 0.0598016 3.70071e-18 0.00609376
0.075776 0.284866 0 0.0214073
0.288433 0.0656539 3.70071e-18 0.00736151
0.219992 0.199534 0 0.0277394
0.288433 0.0717187 0 0.0087199
0.288433 0.0780037 0 0.010149
0.288433 0.0845169 0 0.0115599
0.288433 0.0912666 0 0.012653
0.219992 0.21046 -3.46945e-18 0.027893
0.288433 0.0982613 0 0.0134256
0.151552 0.264688 3.70071e-18 0.0240164
0 0.306027 0 0.0121455
0.288433 0.10551 0 0.0140836
0.075776 0.29889 3.46945e-18 0.0216089
0.288433 0.113022 0 0.0146981
0.219993 0.221782 0 0.0278638
0.288433 0.120806 0 0.0152269
0.288433 0.128874 0 0.015728
0.151552 0.27798 0 0.0237831
0.288433 0.137234 0 0.0162914
0 0.320819 0 0.0131707
0.219992 0.233515 -3.46945e-18 0.0276542
0.075776 0.313423 -3.46945e-18 0.0221053
0.288433 0.145897 0 0.0168681
0.288433 0.154876 0 0.0174752
0.151552 0.291753 0 0.023634
0.219993 0.245675 0 0.0272767
0.288433 0.16418 0 0.0180503
0 0.336148 0 0.0146511
0.288433 0.173822 0 0.018541
0.075776 0.328484 -3.46945e-18 0.0237701
0.219993 0.258275 -3.46945e-18 0.0267605
0.151552 0.306027 0 0.02349
0.288433 0.183814 0 0.0189266
0.288433 0.194169 0 0.0192073
0.219992 0.271334 3.46945e-18 0.0261692
0.350249 0.00184056 -3.46945e-18 9.17816e-07
0.350249 0.00558849 0 3.48571e-06
0.350249 0.00947248 3.46945e-18 1.51838e-05
0.350249 0.0134975 0 4.50261e-05
0.350249 0.0176687 0 0.000115724
0.350249 0.0219913 0 0.000274014
0.350249 0.0264708 3.46945e-18 0.000523252
0.350249 0.031113 0 0.000880362
0 0.352034 0 0.0157675
0.350249 0.0359238 0 0.00134962
0.075776 0.344091 0 0.0265419
0.350249 0.0409091 0 0.00193331
0.350249 0.0460756 3.46945e-18 0.00263186
0.288433 0.2049 0 0.0193888
0.350249 0.0514296 0 0.00344366
0.151552 0.320819 0 0.0236315
0.350249 0.0569779 0 0.00436459
0.350249 0.0627277 3.46945e-18 0.00538733
0.350249 0.0686863 3.46945e-18 0.00650053
0.350249 0.0748612 3.46945e-18 0.0076875
0.350249 0.0812603 0 0.0089246
0.219992 0.284867 0 0.0258541
0.288433 0.21602 0 0.0194752
0.350249 0.0878917 0 0.00994721
0.350249 0.094764 0 0.00993698
0.350249 0.101886 0 0.00990975
0.350249 0.109266 0 0.0100551
0.288433 0.227544 0 0.0194675
0.075776 0.360265 3.46945e-18 0.0260235
0 0.368496 0 0.015656
0.151552 0.336148 0 0.0242963
0.350249 0.116914 3.46945e-18 0.0103131
0.219992 0.29889 0 0.0253408
0.370854 0.0241911 1.54074e-33 0.000405561
0.350249 0.12484 0 0.0105319
0.350249 0.133054 0 0.0106325
0.288433 0.239487 -9.25154e-19 0.0193675
0.350249 0.141566 3.46945e-18 0.0107214
0.350249 0.150387 3.46945e-18 0.0108443
0.288433 0.251863 0 0.0191832
0.219992 0.313423 0 0.0246554
0.151552 0.352034 0 0.0244197
0.075776 0.377027 0 0.023394
0.350249 0.159528 0 0.0109852
0 0.385557 0 0.0150091
0.350249 0.169001 0 0.0111286
0.288433 0.264688 0 0.0189341
0.350249 0.178818 0 0.0112669
0.219992 0.328484 0 0.0238893
0.350249 0.188992 0 0.011398
0.151552 0.368496 0 0.0231946
0.288433 0.27798 3.70071e-18 0.0187177
0.075776 0.394397 0 0.0217392
0.350249 0.199535 0 0.0115211
7.47806e-17 0.403236 0 0.0147284
0.219992 0.344091 0 0.0231155
0.350249 0.21046 -3.46945e-18 0.0116352
0.288433 0.291753 0 0.0185054
0.412065 9.08189e-19 3.08149e-33 2.452e-22
0.412065 0.00368111 -2.31298e-18 2.07147e-06
0.412065 0.00749587 -2.31298e-18 9.20546e-06
0.412065 0.0114491 -2.31298e-18 2.77218e-05
0.412065 0.0155459 -2.31298e-18 6.93277e-05
0.412065 0.0197915 0 0.000161361
0.412065 0.0241911 -3.08149e-33 0.000329329
0.412065 0.0264709 0 0.000457144
0.412065 0.0287506 -2.31298e-18 0.000584959
0.412065 0.0334755 -2.31298e-18 0.000936832
0.412065 0.038372 -2.31298e-18 0.00139047
0.151552 0.385557 0 0.021646
0.412065 0.0434463 0 0.00194733
0.350249 0.221782 0 0.0117382
0.412065 0.0487048 0 0.0026069
0.412065 0.0541543 -3.08149e-33 0.00336631
0.412065 0.0569779 0 0.00379297
0.412065 0.0598016 -2.31298e-18 0.00421964
0.412065 0.0656539 -2.31298e-18 0.00515696
0.412065 0.0717187 -2.31298e-18 0.00616313
0.075776 0.412396 -3.46945e-18 0.0213896
0.412065 0.0780037 -2.31298e-18 0.00711223
0.288433 0.306027 0 0.0181918
0.412065 0.0845169 -2.31298e-18 0.00782236
0.350249 0.233516 3.46945e-18 0.0118265
0 0.421557 0 0.0147918
0.412065 0.0912666 -2.31298e-18 0.00811969
0.219992 0.360265 3.46945e-18 0.0222816
0.412065 0.0982613 0 0.00814205
0.412065 0.10551 0 0.00819441
0.412065 0.113022 -2.31298e-18 0.00832014
0.350249 0.245675 0 0.0118964
0.412065 0.120806 0 0.00846591
0.151552 0.403236 0 0.0206547
0.288433 0.320819 0 0.0178073
0.412065 0.128874 -2.31298e-18 0.00857373
0.412065 0.137234 0 0.00865081
0.350249 0.258275 -3.46945e-18 0.0119439
0.219992 0.377026 0 0.0213095
0.412065 0.145897 -2.31298e-18 0.00873461
0.075776 0.431051 0 0.0214019
0.412065 0.154876 -2.31298e-18 0.00883124
0 0.440544 0 0.014924
0.288433 0.336148 0 0.0173943
0.350249 0.271334 0 0.0119625
0.412065 0.16418 -2.31298e-18 0.00893238
0.412065 0.173822 -2.31298e-18 0.00903233
0.151552 0.421557 0 0.0201278
0.412065 0.183814 -2.31298e-18 0.00912858
0.350249 0.284867 3.46945e-18 0.0119496
0.219992 0.394397 0 0.0202811
0.288433 0.352034 3.70071e-18 0.0169582
0.412065 0.194169 0 0.00922027
0.075776 0.450382 0 0.0214425
0.412065 0.2049 -2.31298e-18 0.0093068
0 0.46022 0 0.0150686
0.350249 0.29889 3.46945e-18 0.0119115
0.412065 0.21602 0 0.00938723
0.151552 0.440544 0 0.0197714
0.219993 0.412396 3.46945e-18 0.019347
0.467897 0.00184056 -3.46945e-18 5.90121e-07
0.467897 0.00558849 0 3.31047e-06
0.288433 0.368496 0 0.0164647
0.467897 0.00947248 0 1.48602e-05
0.467897 0.0134975 0 3.61499e-05
0.467897 0.0176687 3.46945e-18 8.19526e-05
0.467897 0.0219913 -3.46945e-18 0.000178429
0.467897 0.0264709 3.46945e-18 0.000351292
0.467897 0.0311131 3.46945e-18 0.000601229
0.467897 0.0359238 -3.46945e-18 0.000940964
0.467897 0.038372 0 0.00120247
0.467897 0.0409092 3.46945e-18 0.001373
0.350249 0.313423 0 0.0118514
0.467897 0.0460755 0 0.00189791
0.467897 0.0514296 3.46945e-18 0.00251423
0.412065 0.227544 -2.31298e-18 0.00945997
0.467897 0.0569779 0 0.00321772
0.467897 0.0627277 -3.46945e-18 0.00400039
0.467897 0.0686863 3.46945e-18 0.00484927
0.467897 0.0748612 0 0.00574496
0.467897 0.0812603 0 0.00625818
0.467897 0.0878918 3.46945e-18 0.00638414
0.075776 0.470415 3.46945e-18 0.0215792
0.412065 0.239487 -2.31298e-18 0.00952304
0.467897 0.0947639 -3.46945e-18 0.00646412
0.467897 0.101886 3.46945e-18 0.00650529
0.350249 0.328483 0 0.0117749
0.467897 0.109266 0 0.00655637
0 0.48061 0 0.0152021
0.288433 0.385557 0 0.0159107
0.467897 0.116914 0 0.0066154
0.412065 0.251863 -2.31298e-18 0.00957447
0.219992 0.431051 0 0.0185653
0.467897 0.12484 0 0.00667551
0.151552 0.46022 0 0.0195063
0.467897 0.133054 3.46945e-18 0.00673441
0.467897 0.141566 3.46945e-18 0.00679671
0.412065 0.264688 -2.31298e-18 0.0096118
0.350249 0.344091 -3.46945e-18 0.0116865
0.467897 0.150387 3.46945e-18 0.00686083
0.467897 0.154876 0 0.00739145
0.467897 0.159528 3.46945e-18 0.00692424
0.288433 0.403236 0 0.0153536
0.075776 0.491175 0 0.0216293
0.412065 0.27798 -2.31298e-18 0.00963338
0.467897 0.169001 0 0.00698669
0.467897 0.178818 3.46945e-18 0.00704792
0.219992 0.450382 0 0.0179263
6.73026e-17 0.501741 3.70071e-18 0.0152687
0.350249 0.360265 0 0.0115842
0.151552 0.48061 0 0.0192816
0.467897 0.188991 0 0.00710754
0.412065 0.291753 0 0.00964002
0.467897 0.199535 0 0.00716527
0.288433 0.421557 0 0.0148509
0.467897 0.21046 0 0.00722079
0.412065 0.306027 0 0.00963302
0.350249 0.377027 0 0.0114581
0.467897 0.221782 3.46945e-18 0.00727367
0.075776 0.51269 0 0.0215731
0.219993 0.470415 3.46945e-18 0.017381
0.467897 0.227544 0 0.00787617
0.412065 0.320819 -2.31298e-18 0.00961362
0.467897 0.233515 0 0.00732345
6.73026e-17 0.523639 3.70071e-18 0.0152689
0.523729 0 0 0
0.523729 0.00368111 0 1.88618e-06
0.523729 0.00749587 -2.31298e-18 9.4415e-06
0.523729 0.0114491 0 2.57021e-05
0.523729 0.0155459 0 5.55618e-05
0.523729 0.0197915 -2.31298e-18 0.00011433
0.151552 0.501741 0 0.0190346
0.523729 0.0241911 0 0.000229565
0.523729 0.0287506 0 0.000414324
0.523729 0.0334755 0 0.000672535
0.523729 0.038372 -3.08149e-33 0.00101447
0.523729 0.0434463 0 0.00144174
0.523729 0.0487048 0 0.00195367
0.523729 0.0541543 0 0.00254711
0.288433 0.440544 0 0.0144228
0.523729 0.0598016 0 0.00321556
0.350249 0.394397 -3.46945e-18 0.0113032
0.523729 0.0656539 0 0.00394813
0.467897 0.245675 0 0.00736979
0.523729 0.0717187 0 0.00470367
0.523729 0.0780037 0 0.00522576
0.523729 0.0845169 0 0.00542192
0.523729 0.0912666 0 0.00550844
0.412065 0.336148 0 0.00958365
0.523729 0.0982613 0 0.00557212
0.523729 0.10551 -2.31298e-18 0.00562549
0.467897 0.258275 -3.46945e-18 0.00741254
0.523729 0.113022 0 0.00568091
0.523729 0.120806 -3.08149e-33 0.0057367
0.219993 0.491176 0 0.0168886
0.523729 0.12484 0 0.00576378
0.523729 0.128874 -2.31298e-18 0.00579087
0.075776 0.534986 0 0.0214398
0.467897 0.271334 3.46945e-18 0.00745225
0.350249 0.412396 -3.46945e-18 0.0111299
0.523729 0.137234 0 0.00584435
0.412065 0.352034 -2.31298e-18 0.00954347
0.288433 0.46022 0 0.0140608
0.523729 0.145897 0 0.00589821
0.151552 0.523639 0 0.0187637
0.523729 0.154876 -3.08149e-33 0.00595166
0 0.546332 0 0.015218
0.523729 0.159528 0 0.0059779
0.467897 0.284867 -3.46945e-18 0.0074904
0.523729 0.16418 -2.31298e-18 0.00600414
0.523729 0.173822 0 0.00605559
0.412065 0.368496 0 0.00949014
0.523729 0.183814 0 0.00610587
0.467897 0.29889 0 0.00752517
0.350249 0.431051 -3.46945e-18 0.0109561
0.219992 0.51269 0 0.0164356
0.523729 0.194169 0 0.00615484
0.288433 0.48061 0 0.0137447
0.523729 0.2049 0 0.00620236
0.467897 0.313423 3.46945e-18 0.00755453
0.075776 0.558091 0 0.0212549
0.412065 0.385557 0 0.00941989
0.523729 0.21602 -3.08149e-33 0.00624827
0.151552 0.546332 0 0.0184828
0 0.569849 0 0.0151284
0.350249 0.450382 3.46945e-18 0.0107966
0.523729 0.227544 -3.08149e-33 0.00629237
0.467897 0.328483 0 0.00757713
0.523729 0.231525 1.54074e-33 0.00630642
0.574156 0.00184056 0 4.21306e-07
0.574156 0.00558849 0 3.23131e-06
0.574157 0.00947248 0 1.63177e-05
0.574156 0.0134975 -3.46945e-18 3.54554e-05
0.574156 0.0176687 -3.46945e-18 6.91484e-05
0.574156 0.0219913 0 0.000129874
0.574156 0.0264708 -3.46945e-18 0.000263301
0.574156 0.031113 0 0.000449604
0.574156 0.0359238 -3.46945e-18 0.000711277
0.574157 0.0409092 0 0.00105135
0.523729 0.239487 3.70071e-18 0.00633451
0.574156 0.0460755 -3.46945e-18 0.00147011
0.574156 0.0514295 0 0.00196554
0.412065 0.403236 0 0.00933385
0.574157 0.0569779 0 0.00253275
0.574156 0.0627277 0 0.00316299
0.574156 0.0686863 0 0.00384237
0.219992 0.534986 0 0.0160207
0.288433 0.501741 0 0.0134594
0.574156 0.0748612 3.46945e-18 0.00445586
0.574156 0.0812603 0 0.00454567
0.467897 0.344091 0 0.0075921
0.574156 0.0878917 3.46945e-18 0.00461744
0.523729 0.251863 0 0.00637464
0.574157 0.0947639 0 0.00468792
0.574156 0.101886 0 0.00475059
0.574156 0.109266 0 0.0048082
0.574156 0.116914 0 0.00486209
0.412065 0.416977 -6.16298e-33 0.00926303
0.350249 0.470415 0 0.0106588
0.523729 0.264688 0 0.00641296
0.075776 0.582034 0 0.0210367
0.574156 0.12484 0 0.00491266
0.574156 0.133054 3.46945e-18 0.00496044
0.412065 0.421557 -2.31298e-18 0.00923943
0.151552 0.569849 0 0.0182032
0.467897 0.360265 -3.46945e-18 0.00759925
0.574157 0.141566 -3.46945e-18 0.00500626
0.523729 0.27798 0 0.00645001
0.574156 0.150386 3.46945e-18 0.00505065
0 0.594219 0 0.0150095
0.574156 0.159528 -3.46945e-18 0.00509385
0.574156 0.16418 0 0.00528614
0.288433 0.523639 1.2326e-32 0.0131991
0.574157 0.169001 0 0.00513603
0.523729 0.291753 0 0.00648559
0.219993 0.558091 3.46945e-18 0.015648
0.467897 0.377026 0 0.00759852
0.574156 0.178818 3.46945e-18 0.00517726
0.412065 0.440544 -2.31298e-18 0.00914623
0.350249 0.491175 0 0.01054
0.574156 0.188992 3.46945e-18 0.00521758
0.523729 0.306027 -3.08149e-33 0.00651842
0.574157 0.199535 0 0.00525701
0.574157 0.21046 0 0.00529555
0.075776 0.606847 0 0.0207972
0.467897 0.394397 0 0.00758927
0.151552 0.594219 0 0.0179311
0.523729 0.320819 0 0.00654726
0.574157 0.221782 -3.46945e-18 0.00533325
0.412065 0.46022 3.08149e-33 0.00906184
0.288433 0.546332 0 0.0129634
0 0.619475 0 0.0148686
0.574156 0.233515 3.46945e-18 0.00537016
0.350249 0.51269 3.46945e-18 0.0104351
0.219992 0.582034 3.46945e-18 0.0153165
0.523729 0.336148 0 0.00657121
0.467897 0.412396 0 0.0075715
0.574156 0.245675 0 0.00540639
0.624584 0 0 0
0.624584 0.00368111 0 1.79113e-06
0.624584 0.00749587 0 1.02999e-05
0.624584 0.0114491 0 2.71126e-05
0.624584 0.0155459 0 5.18034e-05
0.624584 0.0197915 0 9.29788e-05
0.624584 0.0241911 -2.31298e-18 0.000175338
0.624584 0.0287506 0 0.00031657
0.624584 0.0334755 0 0.000518815
0.624584 0.038372 0 0.00078978
0.624584 0.0434463 -2.31298e-18 0.00113425
0.624584 0.0487048 0 0.00155133
0.624584 0.0541543 0 0.00203732
0.624584 0.0598016 0 0.00258511
0.624584 0.0656539 0 0.00318302
0.624584 0.0717187 0 0.0037148
0.624584 0.0780037 0 0.00398047
0.574157 0.258276 3.46945e-18 0.0054421
0.624584 0.0845169 0 0.00406077
0.523729 0.352034 0 0.00658976
0.624584 0.0912666 0 0.00413186
0.624584 0.0982613 0 0.00419655
0.412065 0.48061 3.08149e-33 0.00898916
0.624584 0.10551 0 0.00425443
0.624584 0.113022 -2.31298e-18 0.00430756
0.574156 0.271334 0 0.00547748
0.624584 0.120806 0 0.004357
0.467897 0.431051 0 0.00754755
0.075776 0.632561 -3.46945e-18 0.0205442
0.624584 0.128874 0 0.00440333
0.151552 0.619475 0 0.0176698
0.288433 0.569849 0 0.0127527
0.350249 0.534985 0 0.010341
0.624584 0.137234 -2.31298e-18 0.00444712
0.523729 0.368496 0 0.00660282
0.574156 0.284866 -3.46945e-18 0.00551259
0.624584 0.145897 0 0.00448894
0.467897 0.440544 0 0.00787365
0.624584 0.154876 0 0.00452919
0.219992 0.606847 -3.46945e-18 0.0150234
0 0.645647 0 0.0147113
0.624584 0.16418 -3.08149e-33 0.00456814
0.574156 0.29889 -3.46945e-18 0.00554689
0.624584 0.173822 0 0.00460596
0.412065 0.501741 1.54074e-33 0.00892709
0.467897 0.450382 -3.46945e-18 0.00752169
0.523729 0.385557 0 0.0066102
0.624584 0.183814 0 0.0046428
0.624584 0.194169 0 0.00467874
0.574156 0.313423 0 0.00557958
0.624584 0.2049 0 0.00471385
0.350249 0.558091 3.46945e-18 0.0102565
0.288433 0.594219 0 0.0125663
0.624584 0.21602 0 0.00474822
0.523729 0.403236 0 0.00661172
0.574156 0.328483 -3.46945e-18 0.00560982
0.151552 0.645647 0 0.0174201
0.467897 0.470415 3.46945e-18 0.00749822
0.075776 0.659208 0 0.0202829
0.624584 0.227544 0 0.00478193
0.412065 0.523639 0 0.00887378
0.523729 0.41545 3.08149e-33 0.00660925
0.624584 0.239487 3.70071e-18 0.00481509
0.574156 0.344091 0 0.00563698
0.219992 0.632561 0 0.014765
0.67013 0.00184055 0 3.02438e-07
0.67013 0.00558849 0 3.21385e-06
0.67013 0.00947248 0 1.83728e-05
0.67013 0.0134975 0 3.81554e-05
0.67013 0.0176687 -3.46945e-18 6.45165e-05
0.67013 0.0219913 0 0.000109177
0.67013 0.0264708 3.46945e-18 0.000201602
0.67013 0.0311131 0 0.000356655
0.67013 0.0359237 0 0.000565266
0.67013 0.0409092 -3.46945e-18 0.000842425
0.67013 0.0460755 0 0.00118861
0.67013 0.0514296 3.46945e-18 0.00160144
0.523729 0.421557 -2.31298e-18 0.00660801
0.67013 0.056978 0 0.00207547
0 0.67277 0 0.014542
0.67013 0.0627277 0 0.00260135
0.624584 0.251863 0 0.00484783
0.67013 0.0686863 0 0.00316446
0.67013 0.0748612 3.46945e-18 0.00344958
0.67013 0.0812603 0 0.00353429
0.67013 0.0878917 0 0.00360923
0.67013 0.0947639 3.46945e-18 0.0036764
0.574156 0.360265 0 0.00566081
0.67013 0.101886 0 0.00373507
0.523729 0.431051 0 0.00660454
0.624584 0.264688 0 0.00488027
0.467897 0.491175 0 0.00747963
0.67013 0.109266 3.46945e-18 0.00378787
0.350249 0.582034 0 0.0101815
0.67013 0.116914 0 0.00383641
0.67013 0.12484 0 0.0038815
0.67013 0.133054 0 0.00392369
0.288433 0.619475 0 0.012403
0.624584 0.27798 -3.08149e-33 0.00491248
0.412065 0.546332 1.54074e-33 0.0088279
0.523729 0.440544 -3.08149e-33 0.00660107
0.67013 0.141566 3.46945e-18 0.00396342
0.685312 0.0241911 -7.70372e-34 0.000152735
0.685312 0.0434463 -7.70372e-34 0.00099506
0.67013 0.150387 0 0.00400114
0.574156 0.377026 -3.46945e-18 0.00568137
0.67013 0.159528 0 0.00403723
0.624584 0.291753 0 0.00494431
0.151552 0.67277 0 0.0171823
0.075776 0.686823 0 0.0200173
0.67013 0.169001 0 0.00407197
0.67013 0.178818 0 0.00410557
0.467897 0.51269 0 0.00746655
0.685312 0.113022 -7.70372e-34 0.00374545
0.219992 0.659208 0 0.0145372
0.624584 0.306027 0 0.00497532
0.67013 0.188991 0 0.00413821
0.574156 0.394397 3.46945e-18 0.00569858
0.523729 0.46022 0 0.00659368
0.685312 0.137234 -7.70372e-34 0.00387682
0.67013 0.199535 -3.46945e-18 0.00417002
0.350249 0.606847 0 0.0101168
0 0.700877 0 0.0143644
0.624584 0.320819 0 0.00500493
0.67013 0.21046 0 0.00420113
0.412065 0.569849 -2.31298e-18 0.00878889
0.67013 0.221782 -3.46945e-18 0.00423166
0.574157 0.412396 0 0.00571236
0.288433 0.645647 0 0.012261
0.624584 0.336148 -3.08149e-33 0.00503264
0.67013 0.233515 3.46945e-18 0.00426175
0.467897 0.534986 0 0.00745867
0.523729 0.48061 0 0.00658839
0.624584 0.344091 0 0.00504536
0.67013 0.245675 0 0.00429153
0.715676 4.54095e-19 0 4.14236e-23
0.715676 0.00368111 0 1.74215e-06
0.715676 0.00749587 0 1.14152e-05
0.715676 0.0114491 0 2.99991e-05
0.715676 0.0155459 0 5.2617e-05
0.715676 0.0197915 0 8.42701e-05
0.715676 0.0241911 0 0.000141433
0.715676 0.0287506 0 0.000251946
0.715676 0.0334755 0 0.000418943
0.715676 0.038372 0 0.000639679
0.624584 0.352034 -2.31298e-18 0.00505809
0.715676 0.0434463 0 0.000925462
0.151552 0.700877 0 0.0169563
0.715676 0.0487048 0 0.00127552
0.715676 0.0541543 0 0.00168587
0.574156 0.43105 0 0.00572309
0.715676 0.0598016 0 0.0021489
0.67013 0.258275 0 0.00432111
0.715676 0.0656539 0 0.00264486
0.715676 0.0717187 0 0.00300247
0.075776 0.715441 0 0.0197505
0.715676 0.0780037 0 0.00314947
0.715676 0.0845169 0 0.00322866
0.219992 0.686824 0 0.0143362
0.715676 0.0912666 0 0.00329882
0.715676 0.0982613 0 0.00336038
0.67013 0.271334 -3.46945e-18 0.00435054
0.350249 0.632561 -3.46945e-18 0.0100629
0.412065 0.594219 3.08149e-33 0.00875696
0.715676 0.10551 0 0.00341492
0.715676 0.113022 0 0.00346439
0.624584 0.368496 0 0.00508117
0.523729 0.501741 0 0.00658665
0.715676 0.120806 0 0.0035099
0.715676 0.128874 0 0.00355215
0.67013 0.284867 0 0.00437979
0.467897 0.558091 3.46945e-18 0.00745532
0.715676 0.137234 0 0.00359168
0.574156 0.450382 0 0.0057319
0 0.730005 0 0.0141818
0.715676 0.145897 0 0.00362893
0.288433 0.67277 0 0.0121384
0.715676 0.154876 0 0.00366429
0.67013 0.29889 0 0.00440872
0.624584 0.385557 0 0.00510184
0.715676 0.16418 -9.25187e-19 0.00369808
0.715676 0.173822 0 0.00373056
0.715676 0.183814 0 0.00376194
0.67013 0.313423 0 0.00443705
0.523729 0.523639 0 0.00658898
0.715676 0.194169 0 0.00379237
0.574156 0.470415 3.46945e-18 0.00574049
0.624584 0.403236 0 0.00512008
0.743101 0.0241911 -7.70372e-34 0.000134539
0.412065 0.619475 3.08149e-33 0.0087326
0.715676 0.2049 0 0.003822
0.151552 0.730005 0 0.016742
0.67013 0.328484 3.46945e-18 0.00446442
0.350249 0.659208 0 0.0100199
0.467897 0.582034 0 0.00745625
0.715676 0.21602 0 0.00385098
0.219992 0.715441 0 0.0141586
0.075776 0.745097 -3.46945e-18 0.0194855
0.715676 0.227544 0 0.00387942
0.67013 0.344091 0 0.00449052
0.624584 0.421557 0 0.00513598
0.743101 0.128874 -7.70372e-34 0.00336052
0.715676 0.239487 3.70071e-18 0.00390745
0.574156 0.491175 0 0.00575056
0.756814 0.00184055 0 2.11582e-07
0.523729 0.546332 0 0.00659527
0.756813 0.00558849 0 3.24262e-06
0.756813 0.00947248 0 2.0762e-05
0.756814 0.0134975 -3.46945e-18 4.25112e-05
0.756814 0.0155459 0 5.42353e-05
0.756814 0.0176687 0 6.51412e-05
0.756814 0.0219913 0 9.85382e-05
0.756814 0.0264709 0 0.000157994
0.756814 0.031113 -3.46945e-18 0.000294607
0.756813 0.0359238 -3.46945e-18 0.000463993
0.288433 0.700877 0 0.0120334
0.756814 0.0409092 -3.46945e-18 0.000694284
0.756813 0.0460755 3.46945e-18 0.000986708
0.756813 0.0514296 0 0.00133884
0.715676 0.251863 0 0.00393517
0.756813 0.0569779 0 0.00174495
0.756814 0.0627277 -3.46945e-18 0.00219523
0.756814 0.0686863 -3.46945e-18 0.00264527
0 0.76019 0 0.0139972
0.756814 0.0748612 0 0.00278489
0.67013 0.360265 3.46945e-18 0.00451515
0.756814 0.0812603 -3.46945e-18 0.00286772
0.756814 0.0878917 -3.46945e-18 0.00294207
0.756814 0.0947639 -3.46945e-18 0.00300634
0.715676 0.264688 0 0.00396266
0.756813 0.101886 0 0.0030626
0.624584 0.440544 0 0.00515006
0.756813 0.109266 3.46945e-18 0.00311316
0.756813 0.116914 3.46945e-18 0.00315925
0.412065 0.645647 0 0.00871622
0.467897 0.606847 0 0.00746175
0.756814 0.120806 0 0.00322318
0.756813 0.12484 0 0.0032017
0.715676 0.27798 0 0.00398993
0.756814 0.133054 -3.46945e-18 0.00324113
0.67013 0.377026 -3.46945e-18 0.00453825
0.756814 0.137234 0 0.00330345
0.574156 0.51269 0 0.00576323
0.756813 0.141566 3.46945e-18 0.00327803
0.685312 0.352034 -7.70372e-34 0.0044318
0.743101 0.2049 -7.70372e-34 0.0036248
0.350249 0.686824 0 0.00998759
0.756814 0.150387 0 0.00331282
0.756814 0.154876 0 0.0033743
0.715676 0.291753 0 0.00401693
0.756814 0.159528 -3.46945e-18 0.00334583
0.523729 0.569849 0 0.00660532
0.72743 0.264688 0 0.00387602
0.756814 0.16418 0 0.00340708
0.151552 0.76019 0 0.0165394
0.756813 0.169001 3.46945e-18 0.00337733
0.624584 0.46022 0 0.00516328
0.219993 0.745097 0 0.0140019
0.67013 0.394396 0 0.00455978
0.756813 0.178818 -3.46945e-18 0.00340757
0.715676 0.306027 0 0.00404352
0.075776 0.775831 0 0.0192247
0.756813 0.188991 0 0.00343675
0.756814 0.199535 0 0.00346503
0.715676 0.320819 0 0.00406949
0.574156 0.534985 0 0.00577899
0.288433 0.730005 0 0.0119444
0.756813 0.21046 0 0.00349256
0.467897 0.632561 0 0.00747232
0.67013 0.412396 -3.46945e-18 0.00457976
0.624584 0.48061 -3.08149e-33 0.00517689
0.756814 0.221782 0 0.00351946
0.412065 0.67277 3.08149e-33 0.00870803
0.715676 0.336148 0 0.0040946
0 0.791472 0 0.0138132
0.756813 0.233516 3.46945e-18 0.00354587
0.523729 0.594219 0 0.00661917
0.624584 0.487654 1.54074e-33 0.00518194
0.756814 0.245675 3.46945e-18 0.0035719
0.350249 0.715441 3.46945e-18 0.00996575
0.67013 0.43105 0 0.00459834
0.715676 0.352034 -9.25187e-19 0.00411866
0.797951 9.08189e-19 -3.08149e-33 5.77524e-23
0.797951 0.00368111 2.31298e-18 1.72371e-06
0.797951 0.00749587 2.31298e-18 1.26885e-05
0.797951 0.0114491 2.31298e-18 3.35922e-05
0.797951 0.0141803 7.70372e-34 4.84331e-05
0.797951 0.0155459 0 5.58536e-05
0.797951 0.0169611 7.70372e-34 6.42244e-05
0.797951 0.0197915 2.31298e-18 8.0966e-05
0.797951 0.0219913 0 0.000100859
0.797951 0.0241911 3.08149e-33 0.000120752
0.797951 0.0264709 0 0.000162676
0.797951 0.0287506 -3.08149e-33 0.000204601
0.797951 0.0334755 2.31298e-18 0.00034482
0.797951 0.038372 2.31298e-18 0.000532333
0.797951 0.0434463 2.31298e-18 0.000773371
0.797951 0.0487048 0 0.00107264
0.756813 0.258275 -3.46945e-18 0.00359761
0.797951 0.0541543 2.31298e-18 0.00142614
0.797951 0.0598016 2.31298e-18 0.00182583
0.797951 0.0656539 2.31298e-18 0.00222568
0.574156 0.55809 0 0.00579789
0.624584 0.501741 0 0.00519203
0.797951 0.0717187 2.31298e-18 0.00247757
0.797951 0.0780037 -3.08149e-33 0.0025817
0.797951 0.0845169 2.31298e-18 0.00266088
0.797951 0.0912666 -3.08149e-33 0.00273016
0.797951 0.0982613 2.31298e-18 0.0027904
0.756813 0.271334 0 0.00362303
0.797951 0.10551 2.31298e-18 0.00284388
0.715676 0.368496 0 0.00414154
0.151552 0.791472 0 0.0163488
0.797951 0.113022 2.31298e-18 0.00289223
0.219992 0.775831 3.46945e-18 0.0138641
0.797951 0.118211 7.70372e-34 0.00292171
0.770526 0.239487 1.54074e-33 0.00350735
0.797951 0.120806 0 0.00293645
0.67013 0.450382 3.46945e-18 0.00461589
0.797951 0.128874 3.08149e-33 0.00297726
0.467897 0.659208 0 0.00748842
0.756813 0.284866 -3.46945e-18 0.00364819
0.743101 0.320819 -7.70372e-34 0.00386273
0.797951 0.137234 0 0.00301523
0.797951 0.141566 0 0.00303301
0.797951 0.145897 -9.25187e-19 0.00305078
0.523729 0.619475 0 0.00663713
0.075776 0.807681 0 0.0189706
0.797951 0.150387 0 0.00306754
0.797951 0.154876 0 0.0030843
0.715676 0.385557 0 0.0041632
0.412065 0.700877 3.08149e-33 0.00870808
0.288433 0.76019 0 0.0118702
0.756813 0.29889 0 0.00367304
0.797951 0.16418 0 0.00311609
0.624584 0.523639 0 0.00520945
0.797951 0.167394 7.70372e-34 0.00312619
0.797951 0.173822 2.31298e-18 0.00314638
0.574156 0.582034 0 0.00581993
0.67013 0.470415 0 0.00463315
0.797951 0.183814 2.31298e-18 0.00317542
0.756813 0.313423 -3.46945e-18 0.00369749
0.797951 0.194169 -9.25187e-19 0.00320337
0.715676 0.403236 0 0.00418365
0.151552 0.807681 0 0.0162598
0.797951 0.197746 -7.70372e-34 0.00321238
0.350249 0.745097 0 0.00995408
0.797951 0.2049 3.08149e-33 0.0032304
0 0.823889 0 0.0136323
0.756813 0.328483 -3.46945e-18 0.00372139
0.797951 0.21046 0 0.00324352
0.797951 0.21602 -3.08149e-33 0.00325664
0.797951 0.223703 7.70372e-34 0.00327371
0.797951 0.227544 9.25187e-19 0.00328224
0.624584 0.546332 0 0.00522952
0.715676 0.421557 0 0.00420297
0.67013 0.491176 -3.46945e-18 0.00465104
0.797951 0.231525 7.70372e-34 0.0032906
0.467897 0.686824 -3.46945e-18 0.00751043
0.523729 0.645647 0 0.00665962
0.756813 0.344091 -3.46945e-18 0.00374459
0.822721 0.120806 7.70372e-34 0.00279907
0.797951 0.239487 -3.08149e-33 0.00330731
0.822721 0.137234 7.70372e-34 0.00287779
0.835106 0.00184056 0 1.43538e-07
0.835106 0.00558849 0 3.29756e-06
0.835106 0.00947248 0 2.33819e-05
0.835106 0.0134975 0 4.75131e-05
0.835107 0.0176687 0 6.8041e-05
0.835106 0.0219913 -3.46945e-18 9.22351e-05