# nutMean  POINT_DATA 63840
# x  y  z  nutMean
0 0.5 3.39583e-17 0.0152632
0 0.5 -0.00617931 0.0152665
0 0.5 0.00617931 0.0152662
0.0124865 0.5 -0.00617931 0.0163172
0.0124865 0.5 0.00617931 0.0163164
0 0.5 -0.0688207 0.01522
0 0.5 0.0688207 0.0152156
0.0124865 0.5 -0.0688207 0.0162708
0.0124865 0.5 0.0688207 0.0162659
0 0.5 -0.075 0.0152076
0 0.5 0.075 0.0152028
0 0.5 -0.0811793 0.0152013
0 0.5 0.0811793 0.015196
0.0124865 0.5 -0.0811793 0.0162685
0.0124865 0.5 0.0811793 0.0162626
0.075776 0.5 -0.0375 0.0216088
0.075776 0.5 0.0375 0.0216038
0.075776 0.5 -0.1125 0.0215932
0.075776 0.5 0.1125 0.0215819
0 0.5 -0.143821 0.0150024
0 0.5 0.143821 0.0149932
0.0124865 0.5 -0.143821 0.0160696
0.0124865 0.5 0.143821 0.0160599
0 0.5 -0.15 0.0149693
0 0.5 0.15 0.0149598
0.151149 0.5 -0.00137318 0.0190869
0 0.5 -0.156179 0.0149419
0 0.5 0.156179 0.0149321
0.0124865 0.5 -0.156179 0.0159808
0.0124865 0.5 0.156179 0.0159701
0.151149 0.5 0.075 0.0190348
0.151149 0.5 -0.075 0.0190408
0.075776 0.5 -0.1875 0.0210619
0.075776 0.5 0.1875 0.021045
0.151149 0.5 0.15 0.0188122
0.151149 0.5 -0.15 0.0188235
0 0.5 -0.218821 0.0145918
0 0.5 0.218821 0.0145793
0.0124865 0.5 -0.218821 0.0156307
0.0124865 0.5 0.218821 0.0156173
0.219992 0.5 0.0375 0.016702
0.219993 0.5 -0.0375 0.0167036
0 0.5 -0.225 0.0145497
0 0.5 0.225 0.0145369
0 0.5 -0.231179 0.0145128
0 0.5 0.231179 0.0144998
0.0124865 0.5 -0.231179 0.0155142
0.0124865 0.5 0.231179 0.0155001
0.219992 0.5 0.1125 0.0165944
0.219993 0.5 -0.1125 0.0166007
0.151149 0.5 -0.225 0.0183938
0.151149 0.5 0.225 0.0183785
0.075776 0.5 -0.2625 0.0203636
0.075776 0.5 0.2625 0.0203427
0.288069 0.5 -0.00137318 0.0135226
0.219992 0.5 0.1875 0.0163628
0.219993 0.5 -0.1875 0.0163735
0 0.5 0.293821 0.0140789
0 0.5 -0.293821 0.0140936
0.0124865 0.5 -0.293821 0.015095
0.0124865 0.5 0.293821 0.0150792
0.288069 0.5 -0.075 0.0134815
0.288069 0.5 0.075 0.0134792
0 0.5 -0.3 0.0140473
0 0.5 0.3 0.0140326
0 0.5 0.306179 0.0139909
0 0.5 -0.306179 0.0140058
0.0124865 0.5 -0.306179 0.0149656
0.0124865 0.5 0.306179 0.0149495
0.288069 0.5 -0.15 0.0134098
0.288069 0.5 0.15 0.0134052
0.151149 0.5 -0.3 0.0178745
0.151149 0.5 0.3 0.0178566
0.219992 0.5 -0.2625 0.0160868
0.219992 0.5 0.2625 0.0160736
0.075776 0.5 0.3375 0.0195651
0.075776 0.5 -0.3375 0.0195879
0.350249 0.5 -0.0375 0.0104969
0.350249 0.5 0.0375 0.0104969
0.288069 0.5 -0.225 0.0132994
0.288069 0.5 0.225 0.0132926
0.350249 0.5 0.1125 0.0105226
0.350249 0.5 -0.1125 0.010524
0 0.5 0.368821 0.0135476
0 0.5 -0.368821 0.0135632
0.0124865 0.5 -0.368821 0.014523
0.0124865 0.5 0.368821 0.0145061
0 0.5 -0.375 0.0135172
0 0.5 0.375 0.0135016
0 0.5 -0.381179 0.013475
0 0.5 0.381179 0.0134594
0.0124865 0.5 -0.381179 0.0143931
0.0124865 0.5 0.381179 0.0143762
0.350249 0.5 -0.1875 0.0105286
0.350249 0.5 0.1875 0.0105278
0.219992 0.5 -0.3375 0.0157412
0.219992 0.5 0.3375 0.015726
0.151149 0.5 -0.375 0.0173142
0.151149 0.5 0.375 0.0172949
0.411736 0.5 -0.00137318 0.00895102
0.288069 0.5 -0.3 0.0131719
0.288069 0.5 0.3 0.0131631
0.411736 0.5 -0.075 0.00895519
0.411736 0.5 0.075 0.00895479
0.075776 0.5 -0.4125 0.0188082
0.075776 0.5 0.4125 0.018785
0.350249 0.5 -0.2625 0.0105777
0.350249 0.5 0.2625 0.0105745
0.411736 0.5 -0.15 0.00898681
0.411736 0.5 0.15 0.00898609
0 0.5 -0.443821 0.0130447
0 0.5 0.443821 0.013029
0.0124865 0.5 -0.443821 0.0139627
0.0124865 0.5 0.443821 0.0139458
0 0.5 -0.45 0.0130024
0 0.5 0.45 0.0129867
0 0.5 -0.456179 0.012962
0 0.5 0.456179 0.0129463
0.0124865 0.5 -0.456179 0.0138408
0.0124865 0.5 0.456179 0.0138239
0.219992 0.5 -0.4125 0.0153713
0.219993 0.5 0.4125 0.0153549
0.411736 0.5 -0.225 0.00903597
0.411736 0.5 0.225 0.00903458
0.467897 0.5 0.0375 0.00747427
0.467897 0.5 -0.0375 0.00747426
0.288069 0.5 -0.375 0.0130274
0.288069 0.5 0.375 0.0130174
0.151149 0.5 -0.45 0.0167589
0.151149 0.5 0.45 0.0167392
0.467897 0.5 -0.1125 0.00750909
0.467897 0.5 0.1125 0.00750885
0.350249 0.5 0.3375 0.0106228
0.350249 0.5 -0.3375 0.010627
0.075776 0.5 -0.4875 0.0180763
0.075776 0.5 0.4875 0.0180535
0.467897 0.5 -0.1875 0.00756728
0.467897 0.5 0.1875 0.0075667
0.411736 0.5 -0.3 0.00910917
0.411736 0.5 0.3 0.00910677
0 0.5 -0.518821 0.0125675
0 0.5 0.518821 0.0125522
0.0124865 0.5 0.518821 0.0134298
0.0124865 0.5 -0.518821 0.0134463
0.523432 0.5 -0.00137318 0.0065972
0 0.5 -0.525 0.0125307
0 0.5 0.525 0.0125155
0.523432 0.5 -0.075 0.00660756
0.523432 0.5 0.075 0.00660751
0 0.5 -0.531179 0.0124934
0 0.5 0.531179 0.0124783
0.0124865 0.5 -0.531179 0.013337
0.0124865 0.5 0.531179 0.0133207
0.288069 0.5 -0.45 0.0128844
0.288069 0.5 0.45 0.0128737
0.219992 0.5 -0.4875 0.0150041
0.219993 0.5 0.4875 0.0149873
0.467897 0.5 -0.2625 0.00764936
0.467897 0.5 0.2625 0.00764829
0.350249 0.5 -0.4125 0.0106884
0.350249 0.5 0.4125 0.0106835
0.523432 0.5 -0.15 0.0066538
0.523432 0.5 0.15 0.00665356
0.151149 0.5 -0.525 0.0162418
0.151149 0.5 0.525 0.0162224
0.411736 0.5 -0.375 0.00919965
0.411736 0.5 0.375 0.00919675
0.075776 0.5 -0.5625 0.0174217
0.075776 0.5 0.5625 0.0174
0.523432 0.5 -0.225 0.00672582
0.523432 0.5 0.225 0.00672532
0.574156 0.5 -0.0375 0.00575575
0.574156 0.5 0.0375 0.00575577
0.467897 0.5 0.3375 0.0077576
0.467897 0.5 -0.3375 0.00775883
0.574156 0.5 -0.1125 0.00578817
0.574156 0.5 0.1125 0.00578818
0 0.5 -0.593821 0.0121528
0 0.5 0.593821 0.0121383
0.0124865 0.5 -0.593821 0.0129964
0.0124865 0.5 0.593821 0.0129808
0.288069 0.5 -0.525 0.0127564
0.288069 0.5 0.525 0.0127453
0 0.5 -0.6 0.0121235
0 0.5 0.6 0.0121091
0.350249 0.5 -0.4875 0.0107637
0.350249 0.5 0.4875 0.0107582
0.523432 0.5 -0.3 0.00682284
0.523432 0.5 0.3 0.00682213
0.219992 0.5 -0.5625 0.0146649
0.219992 0.5 0.5625 0.0146481
0.574156 0.5 -0.1875 0.0058477
0.574156 0.5 0.1875 0.00584753
0 0.5 -0.606179 0.0120927
0 0.5 0.606179 0.0120784
0.0124865 0.5 -0.606179 0.0129086
0.0124865 0.5 0.606179 0.0128933
0.411736 0.5 -0.45 0.00931022
0.411736 0.5 0.45 0.00930686
0.151149 0.5 -0.6 0.0157888
0.151149 0.5 0.6 0.0157701
0.62168 0.5 2.64545e-17 0.00522711
0.467897 0.5 0.4125 0.00789497
0.467897 0.5 -0.4125 0.00789645
0.624316 0.5 0.0729402 0.00520852
0.624316 0.5 -0.075 0.00520847
0.574156 0.5 -0.2625 0.00593578
0.574157 0.5 0.2625 0.00593557
0.075776 0.5 -0.6375 0.0168838
0.075776 0.5 0.6375 0.0168637
0.624316 0.5 -0.15 0.00525222
0.624316 0.5 0.15 0.00525221
0.523432 0.5 -0.375 0.00694683
0.523432 0.5 0.375 0.00694594
0.350249 0.5 -0.5625 0.0108543
0.350249 0.5 0.5625 0.0108482
0.624316 0.5 -0.225 0.00532332
0.624316 0.5 0.225 0.00532326
0.288069 0.5 0.6 0.0126417
0.288069 0.5 -0.6 0.0126529
0.574156 0.5 -0.3375 0.00604411
0.574156 0.5 0.3375 0.00604371
0.411736 0.5 -0.525 0.00944094
0.411736 0.5 0.525 0.00943716
0 0.5 -0.668821 0.0118129
0 0.5 0.668821 0.0117995
0.0124865 0.5 -0.668821 0.0126289
0.0124865 0.5 0.668821 0.0126144
0.67013 0.5 0.0375 0.00465901
0.67013 0.5 -0.0375 0.00465894
0.219993 0.5 -0.6375 0.014365
0.219993 0.5 0.6375 0.0143486
0 0.5 -0.675 0.0117892
0 0.5 0.675 0.0117759
0.467897 0.5 0.4875 0.00805767
0.467897 0.5 -0.4875 0.00805945
0.67013 0.5 -0.1125 0.00468804
0.67013 0.5 0.1125 0.00468813
0 0.5 -0.681179 0.0117649
0 0.5 0.681179 0.0117516
0.0124865 0.5 -0.681179 0.0125591
0.0124865 0.5 0.681179 0.0125449
0.523432 0.5 -0.45 0.00709934
0.523432 0.5 0.45 0.00709828
0.151149 0.5 -0.675 0.0154128
0.151149 0.5 0.675 0.0153952
0.624316 0.5 -0.3 0.00541543
0.624316 0.5 0.3 0.00541528
0.67013 0.5 0.1875 0.00474222
0.67013 0.5 -0.1875 0.0047422
0.574156 0.5 -0.4125 0.00618459
0.574157 0.5 0.4125 0.00618412
0.708171 0.5 1.88651e-17 0.00433787
0.075776 0.5 -0.7125 0.0164497
0.075776 0.5 0.7125 0.0164311
0.715434 0.5 0.0736268 0.00429807
0.715434 0.5 -0.075 0.00428963
0.67013 0.5 0.2625 0.0048252
0.67013 0.5 -0.2625 0.00482511
0.350249 0.5 -0.6375 0.0109617
0.350249 0.5 0.6375 0.0109552
0.411736 0.5 -0.6 0.00959236
0.411736 0.5 0.6 0.00958821
0.624316 0.5 -0.375 0.00553409
0.624316 0.5 0.375 0.00553383
0.715434 0.5 -0.15 0.00432898
0.715434 0.5 0.15 0.00432905
0.467897 0.5 -0.5625 0.00824785
0.467897 0.5 0.5625 0.00824581
0.288069 0.5 -0.675 0.0125808
0.288069 0.5 0.675 0.0125697
0.523432 0.5 -0.525 0.00727854
0.523432 0.5 0.525 0.0072773
0 0.5 -0.743821 0.0115469
0 0.5 0.743821 0.0115345
0.0124865 0.5 -0.743821 0.0123412
0.0124865 0.5 0.743821 0.0123278
0.219992 0.5 0.7125 0.0141028
0.219992 0.5 -0.7125 0.0141183
0.715434 0.5 -0.225 0.00439336
0.715434 0.5 0.225 0.00439344
0 0.5 -0.75 0.0115289
0 0.5 0.75 0.0115166
0.67013 0.5 0.3375 0.00491476
0.67013 0.5 -0.3375 0.00491486
0.574156 0.5 -0.4875 0.00635334
0.574156 0.5 0.4875 0.00635277
0 0.5 -0.756179 0.0115104
0 0.5 0.756179 0.0114982
0.0124865 0.5 -0.756179 0.0122885
0.0124865 0.5 0.756179 0.0122754
0.756813 0.5 -0.0375 0.00391069
0.756813 0.5 0.0375 0.00391074
0.151149 0.5 -0.75 0.0151188
0.151149 0.5 0.75 0.0151024
0.756813 0.5 -0.1125 0.00393631
0.756813 0.5 0.1125 0.00393639
0.624316 0.5 -0.45 0.00568513
0.624316 0.5 0.45 0.00568483
0.715434 0.5 -0.3 0.00447907
0.715434 0.5 0.3 0.00447913
0.756813 0.5 0.1875 0.00398511
0.756813 0.5 -0.1875 0.00398503
0.67013 0.5 -0.4125 0.00505153
0.67013 0.5 0.4125 0.00505145
0.411736 0.5 -0.675 0.00976468
0.411736 0.5 0.675 0.00976022
0.467897 0.5 0.6375 0.0084587
0.467897 0.5 -0.6375 0.00846098
0.075776 0.5 -0.7875 0.0161293
0.075776 0.5 0.7875 0.0161124
0.350249 0.5 -0.7125 0.0110872
0.350249 0.5 0.7125 0.0110804
0.523432 0.5 -0.6 0.0074841
0.523432 0.5 0.6 0.00748269
0.797732 0.5 2.68882e-17 0.00364071
0.756813 0.5 -0.2625 0.00405716
0.756814 0.5 0.2625 0.00405726
0.797732 0.5 0.0736268 0.00365556
0.797732 0.5 -0.075 0.00365272
0.288069 0.5 -0.75 0.0125463
0.288069 0.5 0.75 0.0125354
0.574156 0.5 -0.5625 0.00654964
0.574157 0.5 0.5625 0.00654898
0.715434 0.5 -0.375 0.00458758
0.715434 0.5 0.375 0.0045876
0.797732 0.5 -0.15 0.00368782
0.797732 0.5 0.15 0.0036879
0.624316 0.5 -0.525 0.00586196
0.624316 0.5 0.525 0.00586161
0.219992 0.5 -0.7875 0.0139322
0.219992 0.5 0.7875 0.0139175
0 0.5 -0.818821 0.0113547
0 0.5 0.818821 0.0113434
0.0124865 0.5 0.818821 0.0121206
0.0124865 0.5 -0.818821 0.0121328
0 0.5 -0.825 0.0113431
0 0.5 0.825 0.011332
0.756813 0.5 0.3375 0.00415539
0.756814 0.5 -0.3375 0.00415524
0.67013 0.5 -0.4875 0.00521016
0.67013 0.5 0.4875 0.00521006
0.797732 0.5 -0.225 0.00374478
0.797732 0.5 0.225 0.00374487
0 0.5 -0.831179 0.0113301
0 0.5 0.831179 0.011319
0.0124865 0.5 -0.831179 0.012098
0.0124865 0.5 0.831179 0.0120862
0.835106 0.5 0.0375 0.00338199
0.835106 0.5 -0.0375 0.00338195
0.151149 0.5 -0.825 0.0149098
0.151149 0.5 0.825 0.0148946
0.835106 0.5 0.1125 0.00340461
0.835106 0.5 -0.1125 0.00340455
0.715434 0.5 -0.45 0.00472417
0.715434 0.5 0.45 0.00472417
0.797732 0.5 -0.3 0.0038258
0.797732 0.5 0.3 0.00382592
0.467897 0.5 0.7125 0.00869519
0.467897 0.5 -0.7125 0.00869772
0.523432 0.5 -0.675 0.00771546
0.523432 0.5 0.675 0.00771387
0.411736 0.5 -0.75 0.0099584
0.411736 0.5 0.75 0.00995367
0.835106 0.5 -0.1875 0.00344818
0.835106 0.5 0.1875 0.00344827
0.574156 0.5 -0.6375 0.00677355
0.574157 0.5 0.6375 0.00677281
0.350249 0.5 -0.7875 0.0112333
0.350249 0.5 0.7875 0.0112263
0.756813 0.5 -0.4125 0.00426523
0.756814 0.5 0.4125 0.00426532
0.075776 0.5 -0.8625 0.0159154
0.075776 0.5 0.8625 0.0159001
0.624316 0.5 0.6 0.00606542
0.624316 0.5 -0.6 0.00606582
0.872064 0.5 5.91974e-17 0.00316989
0.870122 0.5 0.075 0.00319425
0.288069 0.5 -0.825 0.0125519
0.288069 0.5 0.825 0.0125414
0.67013 0.5 -0.5625 0.0053944
0.67013 0.5 0.5625 0.0053943
0.872064 0.5 -0.075 0.00318047
0.835106 0.5 -0.2625 0.00351179
0.835106 0.5 0.2625 0.0035119
0.797732 0.5 -0.375 0.00392316
0.797732 0.5 0.375 0.00392327
0.872064 0.5 0.14794 0.00321165
0.872064 0.5 -0.15 0.00321156
0.715434 0.5 -0.525 0.00488747
0.715434 0.5 0.525 0.00488746
0.219992 0.5 0.8625 0.0137947
0.219993 0.5 -0.8625 0.0138085
0 0.5 -0.893821 0.0112351
0 0.5 0.893821 0.011225
0.0124865 0.5 -0.893821 0.012003
0.0124865 0.5 0.893821 0.0119921
0 0.5 -0.9 0.0112299
0 0.5 0.9 0.01122
0.756813 0.5 -0.4875 0.00440734
0.756813 0.5 0.4875 0.0044074
0.872064 0.5 -0.225 0.0032621
0.872064 0.5 0.225 0.0032622
0.835106 0.5 -0.3375 0.0036024
0.835106 0.5 0.3375 0.00360256
0 0.5 0.906179 0.0112139
0 0.5 -0.906179 0.0112237
0.0124865 0.5 -0.906179 0.0119885
0.0124865 0.5 0.906179 0.0119781
0.90582 0.5 -0.0375 0.00296574
0.90582 0.5 0.0375 0.00296578
0.151149 0.5 -0.9 0.0147863
0.151149 0.5 0.9 0.0147726
0.90582 0.5 -0.1125 0.00298556
0.905821 0.5 0.1125 0.00298565
0.523432 0.5 -0.75 0.00797182
0.523432 0.5 0.75 0.00797004
0.574156 0.5 -0.7125 0.00702453
0.574156 0.5 0.7125 0.00702366
0.797732 0.5 -0.45 0.00404182
0.797732 0.5 0.45 0.0040419
0.467897 0.5 0.7875 0.00895464
0.467897 0.5 -0.7875 0.00895743
0.624316 0.5 -0.675 0.00629717
0.624316 0.5 0.675 0.00629669
0.411736 0.5 -0.825 0.0101733
0.411736 0.5 0.825 0.0101683
0.872064 0.5 0.3 0.00333443
0.872064 0.5 -0.3 0.00333427
0.67013 0.5 -0.6375 0.00560602
0.67013 0.5 0.6375 0.00560588
0.90582 0.5 0.1875 0.00302415
0.905821 0.5 -0.1875 0.00302405
0.350249 0.5 -0.8625 0.0113996
0.350249 0.5 0.8625 0.0113924
0.835106 0.5 -0.4125 0.00369373
0.835106 0.5 0.4125 0.00369378
0.715434 0.5 -0.6 0.00507703
0.715434 0.5 0.6 0.005077
0.939201 0.5 2.75387e-17 0.00286046
0.075776 0.5 0.9375 0.0158019
0.075776 0.5 -0.9375 0.0158151
0.939111 0.5 0.075 0.00287198
0.939201 0.5 -0.075 0.00287025
0.756813 0.5 0.5625 0.0045764
0.756814 0.5 -0.5625 0.00457632
0.90582 0.5 0.2625 0.0030808
0.905821 0.5 -0.2625 0.00308069
0.288069 0.5 -0.9 0.0126015
0.288069 0.5 0.9 0.0125914
0.872064 0.5 -0.375 0.00342383
0.872064 0.5 0.375 0.00342385
0.939201 0.5 0.148627 0.00290042
0.939201 0.5 -0.15 0.00289906
0.797732 0.5 -0.525 0.00419083
0.797732 0.5 0.525 0.00419092
0.219992 0.5 0.9375 0.0137355
0.219992 0.5 -0.9375 0.0137482
0.939201 0.5 -0.225 0.00294603
0.939201 0.5 0.225 0.00294614
0.905821 0.5 -0.3375 0.00315889
0.90582 0.5 0.3375 0.00315917
0.835106 0.5 -0.4875 0.00382555
0.835106 0.5 0.4875 0.00382568
0 0.5 0.968821 0.0111763
0 0.5 -0.968821 0.0111852
0.0124865 0.5 -0.968821 0.01195
0.0124865 0.5 0.968821 0.0119405
0.969689 0.5 -0.0375 0.00275858
0.969689 0.5 0.0375 0.00275862
0.574156 0.5 -0.7875 0.00730168
0.574156 0.5 0.7875 0.00730065
0 0.5 -0.975 0.0111821
0 0.5 0.975 0.0111732
0.624316 0.5 -0.75 0.00655571
0.624316 0.5 0.75 0.00655511
0.969689 0.5 -0.1125 0.00277802
0.96969 0.5 0.1125 0.00277811
0.523432 0.5 -0.825 0.00825206
0.523432 0.5 0.825 0.00825007
0.67013 0.5 0.7125 0.00584535
0.67013 0.5 -0.7125 0.00584554
0 0.5 -0.981179 0.0111813
0 0.5 0.981179 0.0111725
0.467897 0.5 0.8625 0.00923499
0.467897 0.5 -0.8625 0.00923805
0.0124865 0.5 -0.981179 0.011945
0.0124865 0.5 0.981179 0.0119354
0.872064 0.5 -0.45 0.00353161
0.872064 0.5 0.45 0.00353158
0.715434 0.5 -0.675 0.00529353
0.715434 0.5 0.675 0.00529348
0.939201 0.5 -0.3 0.00301184
0.939201 0.5 0.3 0.00301201
0.151149 0.5 0.975 0.0147301
0.151149 0.5 -0.975 0.0147426
0.969689 0.5 -0.1875 0.00281552
0.969689 0.5 0.1875 0.00281564
0.756813 0.5 -0.6375 0.00477049
0.756813 0.5 0.6375 0.00477055
0.411736 0.5 -0.9 0.010412
0.411736 0.5 0.9 0.0104069
0.90582 0.5 -0.4125 0.00325708
0.90582 0.5 0.4125 0.00325671
0.995005 0.5 0.0749309 0.00264296
0.797732 0.5 -0.6 0.00436379
0.797732 0.5 0.6 0.00436388
1.00005 0.5 -8.47123e-18 0.00260482
0.350249 0.5 -0.9375 0.011598
0.350249 0.5 0.9375 0.011591
1.00005 0.5 -0.0749309 0.00261413
0.969689 0.5 -0.2625 0.0028708
0.969689 0.5 0.2625 0.00287092
0.835106 0.5 -0.5625 0.00397921
0.835106 0.5 0.5625 0.00397932
1.00005 0.5 -0.149862 0.00264143
0.939201 0.5 -0.375 0.00309792
0.939201 0.5 0.375 0.00309798
1.00029 0.5 0.148988 0.00264505
0.075776 0.5 -1.0125 0.0157973
0.075776 0.5 1.0125 0.015785
0.288069 0.5 0.975 0.0126877
0.288069 0.5 -0.975 0.0126972
0.872064 0.5 -0.525 0.00366367
0.872064 0.5 0.525 0.00366378
1.00005 0.5 0.224793 0.00268616
1.00005 0.5 -0.224793 0.00268619
0.969689 0.5 0.3375 0.00294419
0.96969 0.5 -0.3375 0.00294402
1.0271 0.5 -0.0368226 0.00244311
1.0271 0.5 0.0368226 0.00244315
0.90582 0.5 0.4875 0.00336721
0.905821 0.5 -0.4875 0.00336712
1.0271 0.5 -0.110468 0.0024601
1.0271 0.5 0.110468 0.00244952
0.67013 0.5 0.7875 0.00611228
0.67013 0.5 -0.7875 0.00611262
0.624316 0.5 0.825 0.00684003
0.624316 0.5 -0.825 0.00684076
0.219993 0.5 -1.0125 0.0137502
0.219993 0.5 1.0125 0.0137384
0.574156 0.5 -0.8625 0.00760407
0.574156 0.5 0.8625 0.00760291
0.715434 0.5 -0.75 0.00553749
0.715434 0.5 0.75 0.00553738
0.756813 0.5 0.7125 0.00499209
0.756814 0.5 -0.7125 0.00499204
0.523432 0.5 -0.9 0.00855539
0.523432 0.5 0.9 0.00855326
0.939201 0.5 -0.45 0.0032003
0.939201 0.5 0.45 0.00320033
1.04168 0.5 0 0.00236798
1.0271 0.5 -0.184113 0.00249319
1.0271 0.5 0.184113 0.00249331
0 0.5 -1.04382 0.0111721
0 0.5 1.04382 0.0111633
0.0124865 0.5 -1.04382 0.0119357
0.0124865 0.5 1.04382 0.0119262
1.00005 0.5 -0.299723 0.00274861
1.00005 0.5 0.299723 0.00274856
1.04168 0.5 -0.0729162 0.00237572
1.04168 0.5 0.0729162 0.00237578
0.797732 0.5 -0.675 0.00456232
0.797732 0.5 0.675 0.0045624
0.467897 0.5 0.9375 0.0095376
0.467897 0.5 -0.9375 0.00954072
0 0.5 -1.05 0.0111682
0 0.5 1.05 0.0111595
0.835106 0.5 -0.6375 0.00415497
0.835106 0.5 0.6375 0.00415509
1.04168 0.5 -0.145832 0.00239843
1.04168 0.5 0.145832 0.00239853
0.969689 0.5 -0.4125 0.00303884
0.96969 0.5 0.4125 0.003039
0 0.5 -1.05618 0.0111659
0 0.5 1.05618 0.011157
0.0124865 0.5 -1.05618 0.0119214
0.0124865 0.5 1.05618 0.0119117
1.05695 0.5 -0.0360764 0.00229248
1.05695 0.5 0.0360764 0.00229244
0.411736 0.5 -0.975 0.0106791
0.411736 0.5 0.975 0.010674
0.872064 0.5 -0.6 0.00381881
0.872064 0.5 0.6 0.00381894
1.0271 0.5 -0.257759 0.00254293
1.0271 0.5 0.257759 0.00254307
0.151149 0.5 -1.05 0.0147435
0.151149 0.5 1.05 0.0147312
1.05695 0.5 0.108229 0.00229106
1.05695 0.5 -0.108229 0.00230648
1.04168 0.5 -0.218749 0.00243596
1.04168 0.5 0.218749 0.00243609
0.90582 0.5 -0.5625 0.00350067
0.905821 0.5 0.5625 0.00350079
1.00005 0.5 -0.374654 0.00283094
1.00005 0.5 0.374654 0.00283085
0.350249 0.5 1.0125 0.0118179
0.350249 0.5 -1.0125 0.011825
1.05695 0.5 -0.180382 0.00233341
1.05695 0.5 0.180382 0.00233319
1.07319 0.5 0.0709442 0.00223555
0.939201 0.5 -0.525 0.00333224
0.939201 0.5 0.525 0.00333235
1.0271 0.5 -0.331404 0.0026099
1.0271 0.5 0.331404 0.00261007
1.08112 0.5 3.23815e-17 0.00220114
1.04168 0.5 -0.291665 0.00248896
1.04168 0.5 0.291665 0.0024891
1.08112 0.5 -0.0709442 0.00220769
0.969689 0.5 -0.4875 0.00314544
0.96969 0.5 0.4875 0.00314568
1.05695 0.5 0.252535 0.00237385
1.05695 0.5 -0.252535 0.00237419
0.288069 0.5 -1.05 0.0128316
0.288069 0.5 1.05 0.0128222
0.075776 0.5 -1.0875 0.0157593
0.075776 0.5 1.0875 0.0157454
1.08112 0.5 -0.141888 0.00222678
1.08145 0.5 0.140165 0.00223023
0.715434 0.5 0.825 0.00580833
0.715434 0.5 -0.825 0.00580855
0.756813 0.5 0.7875 0.00524059
0.756814 0.5 -0.7875 0.00524059
0.67013 0.5 -0.8625 0.0064067
0.67013 0.5 0.8625 0.00640626
0.797732 0.5 -0.75 0.00478898
0.797732 0.5 0.75 0.00478901
0.624316 0.5 -0.9 0.00715138
0.624316 0.5 0.9 0.00715053
1.00005 0.5 -0.449585 0.00293225
1.00005 0.5 0.449585 0.00293215
0.835106 0.5 -0.7125 0.00435841
0.835106 0.5 0.7125 0.0043585
0.574156 0.5 -0.9375 0.00793043
0.574157 0.5 0.9375 0.00792913
1.10076 0.5 -0.0349809 0.00213428
1.10076 0.5 0.0349809 0.0021343
1.08112 0.5 -0.212832 0.00225833
1.08112 0.5 0.212832 0.00225829
0.872064 0.5 -0.675 0.00400053
0.872064 0.5 0.675 0.00400067
1.04168 0.5 -0.364581 0.00255968
1.04168 0.5 0.364581 0.00255986
1.0271 0.5 0.405049 0.00269803
1.0271 0.5 -0.405049 0.0026978
1.05695 0.5 -0.324688 0.00242949
1.05695 0.5 0.324688 0.00242902
1.10076 0.5 -0.104943 0.00214704
1.10076 0.5 0.104943 0.0021471
0.523432 0.5 0.975 0.0088833
0.523432 0.5 -0.975 0.00888557
0.90582 0.5 0.6375 0.00365913
0.905821 0.5 -0.6375 0.00365897
0.219992 0.5 1.0875 0.0137912
0.219992 0.5 -1.0875 0.0138026
1.11376 0.5 3.81639e-17 0.0020936
0.939201 0.5 0.6 0.00348876
0.939201 0.5 -0.6 0.00348884
1.10076 0.5 -0.174905 0.00217137
1.10076 0.5 0.174905 0.00217145
0.467897 0.5 -1.0125 0.00987465
0.467897 0.5 1.0125 0.0098713
1.11376 0.5 -0.0693118 0.00209983
1.11376 0.5 0.0693118 0.00209987
1.08112 0.5 0.283777 0.00230305
1.08112 0.5 -0.283777 0.00230314
0 0.5 -1.11882 0.0111907
0 0.5 1.11882 0.0111831
0.0124865 0.5 -1.11882 0.0119462
0.0124865 0.5 1.11882 0.0119378
0.969689 0.5 -0.5625 0.00332228
0.969689 0.5 0.5625 0.00332227
1.11376 0.5 0.138624 0.00212005
1.11376 0.5 -0.138624 0.00211797
0 0.5 -1.125 0.0111984
0 0.5 1.125 0.0111911
1.10076 0.5 0.244866 0.00220837
1.10076 0.5 -0.244866 0.00220827
0.411736 0.5 -1.05 0.0109718
0.411736 0.5 1.05 0.0109665
1.05695 0.5 -0.396841 0.00250299
1.05695 0.5 0.396841 0.00250242
1.00005 0.5 -0.524516 0.00306849
1.00005 0.5 0.524516 0.00306825
1.04168 0.5 -0.437497 0.00264997
1.04168 0.5 0.437497 0.00265021
0 0.5 -1.13118 0.0112061
0 0.5 1.13118 0.011199
0.0124865 0.5 -1.13118 0.0119681
0.0124865 0.5 1.13118 0.0119605
1.11376 0.5 -0.207935 0.00214793
1.11376 0.5 0.207935 0.00214801
1.0271 0.5 -0.478694 0.00280636
1.0271 0.5 0.478694 0.00280663
0.151149 0.5 -1.125 0.0148027
0.151149 0.5 1.125 0.0147918
1.08112 0.5 -0.354722 0.00236316
1.08112 0.5 0.354722 0.00236305
1.13882 0.5 -0.0340295 0.00201294
1.13882 0.5 0.0340295 0.00201293
0.350249 0.5 -1.0875 0.0120672
0.350249 0.5 1.0875 0.0120598
1.13882 0.5 -0.102088 0.00202479
1.13882 0.5 0.102088 0.00202075
1.10076 0.5 -0.314829 0.0022583
1.10076 0.5 0.314829 0.00225842
0.756813 0.5 -0.8625 0.005516
0.756814 0.5 0.8625 0.00551586
0.797732 0.5 -0.825 0.00504355
0.797732 0.5 0.825 0.00504344
1.11376 0.5 -0.277247 0.00219043
1.11376 0.5 0.277247 0.00219053
0.835106 0.5 0.7875 0.00459219
0.835106 0.5 -0.7875 0.00459218
0.715434 0.5 -0.9 0.0061072
0.715434 0.5 0.9 0.00610695
0.872064 0.5 -0.75 0.00421139
0.872064 0.5 0.75 0.0042116
1.13882 0.5 0.170147 0.00204751
1.13882 0.5 -0.170147 0.00204756
0.67013 0.5 -0.9375 0.0067267
0.67013 0.5 0.9375 0.00672619
0.905821 0.5 -0.7125 0.00384893
0.905821 0.5 0.7125 0.00384912
1.05695 0.5 0.468994 0.00259485
1.05695 0.5 -0.468994 0.00259559
0.939201 0.5 -0.675 0.00364385
0.939201 0.5 0.675 0.0036438
0.624316 0.5 0.975 0.00748839
0.624316 0.5 -0.975 0.00748933
1.04168 0.5 -0.510414 0.00276521
1.04168 0.5 0.510414 0.00276547
0.969689 0.5 -0.6375 0.00347924
0.96969 0.5 0.6375 0.00347868
0.288069 0.5 -1.125 0.013006
0.288069 0.5 1.125 0.012997
1.16179 0.5 5.78241e-19 0.0019348
1.08112 0.5 0.425666 0.00244039
1.08112 0.5 -0.425666 0.00244051
1.13882 0.5 -0.238206 0.002082
1.13882 0.5 0.238206 0.00208193
1.16179 0.5 0.0669104 0.00192898
1.16179 0.5 -0.0669104 0.00194033
0.574156 0.5 -1.0125 0.00828685
0.574156 0.5 1.0125 0.00828541
0.075776 0.5 -1.1625 0.0158518
0.075776 0.5 1.1625 0.0158436
1.00005 0.5 -0.599447 0.00321664
1.00005 0.5 0.599447 0.00321624
1.10076 0.5 0.384791 0.00232451
1.10076 0.5 -0.384791 0.00232434
1.0271 0.5 -0.55234 0.0029446
1.0271 0.5 0.55234 0.00294486
1.11376 0.5 -0.346559 0.00224705
1.11376 0.5 0.346559 0.00224719
1.16179 0.5 -0.133821 0.00195636
1.16179 0.5 0.133821 0.00195476
0.523432 0.5 -1.05 0.00924473
0.523432 0.5 1.05 0.00924233
1.17463 0.5 -0.0331343 0.00189332
1.17463 0.5 0.0331343 0.00189334
1.17463 0.5 -0.0994029 0.0019038
1.17463 0.5 0.0994029 0.00190382
1.16179 0.5 -0.200731 0.00198284
1.16179 0.5 0.200731 0.00198259
1.13882 0.5 -0.306265 0.00212869
1.13882 0.5 0.306265 0.00212857
0.219992 0.5 -1.1625 0.0139276
0.219992 0.5 1.1625 0.0139172
0.467897 0.5 -1.0875 0.0102353
0.467897 0.5 1.0875 0.010232
1.17463 0.5 0.165672 0.00192392
1.17463 0.5 -0.165672 0.0019239
1.05695 0.5 -0.541147 0.00271349
1.05695 0.5 0.541147 0.00271273
1.18772 0.5 -5.78241e-19 0.0018519
1.11376 0.5 -0.41587 0.00231959
1.11376 0.5 0.41587 0.00231975
1.18772 0.5 -0.065614 0.00185687
1.18772 0.5 0.065614 0.00185759
1.08112 0.5 -0.49661 0.00253868
1.08112 0.5 0.49661 0.00253855
1.10076 0.5 -0.454752 0.00240728
1.10076 0.5 0.454752 0.00240747
1.18534 0.5 0.118202 0.00187143
1.16179 0.5 -0.267642 0.00202044
1.16179 0.5 0.267642 0.00202009
0 0.5 -1.19382 0.0112872
0 0.5 1.19382 0.0112811
0.0124865 0.5 1.19382 0.0120426
0.0124865 0.5 -1.19382 0.0120492
1.04168 0.5 -0.58333 0.00288238
1.04168 0.5 0.58333 0.00288255
1.18772 0.5 -0.131228 0.00187142
1.17463 0.5 -0.23194 0.0019544
1.17463 0.5 0.23194 0.00195444
0.411736 0.5 -1.125 0.0112855
0.411736 0.5 1.125 0.0112802
1.13882 0.5 -0.374324 0.00218973
1.13882 0.5 0.374324 0.00218962
0 0.5 -1.2 0.0112959
0 0.5 1.2 0.0112898
0.905821 0.5 0.7875 0.00406631
0.905821 0.5 -0.7875 0.00406574
0.872064 0.5 -0.825 0.00445191
0.872064 0.5 0.825 0.00445199
0.835106 0.5 0.8625 0.00485304
0.835106 0.5 -0.8625 0.00485335
0.939201 0.5 -0.75 0.00382368
0.939201 0.5 0.75 0.00382383
0.797732 0.5 -0.9 0.0053285
0.797732 0.5 0.9 0.00532841
1.0271 0.5 0.625985 0.00306586
1.0271 0.5 -0.625985 0.00306577
0.969689 0.5 0.7125 0.00359538
0.96969 0.5 -0.7125 0.00359537
1.18772 0.5 -0.196842 0.0018955
1.18772 0.5 0.196842 0.00189552
0.756814 0.5 -0.9375 0.00582185
0.756814 0.5 0.9375 0.00582193
0 0.5 1.20618 0.0112997
0 0.5 -1.20618 0.0113058
1.00005 0.5 -0.674378 0.00335919
1.00005 0.5 0.674378 0.00335863
0.0124865 0.5 1.20618 0.0120669
0.0124865 0.5 -1.20618 0.0120736
1.16179 0.5 -0.334552 0.00207045
1.16179 0.5 0.334552 0.00207001
0.715434 0.5 0.975 0.00643962
0.715434 0.5 -0.975 0.00643957
0.151149 0.5 -1.2 0.0149513
0.151149 0.5 1.2 0.0149419
1.20942 0.5 0.0322645 0.00178
1.20942 0.5 -0.0322645 0.00178112
1.17463 0.5 -0.298209 0.00199589
1.17463 0.5 0.298209 0.00199594
1.20942 0.5 -0.0967935 0.00179026
1.20942 0.5 0.0967935 0.00179025
0.350249 0.5 -1.1625 0.0123343
0.350249 0.5 1.1625 0.0123272
0.67013 0.5 1.0125 0.00707552
0.67013 0.5 -1.0125 0.00707608
1.11376 0.5 0.485183 0.00240997
1.11376 0.5 -0.485183 0.0024097
1.18772 0.5 0.262456 0.00192986
1.18772 0.5 -0.262456 0.00192983
1.10076 0.5 -0.524714 0.00251244
1.10076 0.5 0.524714 0.00251287
1.20942 0.5 -0.161322 0.0018078
1.20942 0.5 0.161322 0.00180778
1.08112 0.5 -0.567554 0.00263894
1.08112 0.5 0.567554 0.00263849
0.624316 0.5 -1.05 0.00785739
0.624316 0.5 1.05 0.00785635
1.13882 0.5 -0.442383 0.00226592
1.13882 0.5 0.442383 0.00226572
1.05695 0.5 0.6133 0.00280615
1.05695 0.5 -0.6133 0.00280721
1.16179 0.5 -0.401463 0.00213454
1.16179 0.5 0.401463 0.00213397
0.574156 0.5 -1.0875 0.00867114
0.574156 0.5 1.0875 0.00866956
1.17463 0.5 0.364477 0.00205038
1.17463 0.5 -0.364477 0.00205028
1.20942 0.5 -0.225851 0.00183446
1.20942 0.5 0.225851 0.00183445
1.23036 0.5 -1.32995e-17 0.00171659
1.2294 0.5 0.0634819 0.00172352
1.04168 0.5 -0.656246 0.00301235
1.04168 0.5 0.656246 0.00301248
1.23036 0.5 -0.0634819 0.00172091
1.18772 0.5 0.32807 0.0019757
1.18772 0.5 -0.32807 0.00197565
0.288069 0.5 -1.2 0.0132149
0.288069 0.5 1.2 0.0132067
1.23036 0.5 -0.126964 0.00173336
1.23036 0.5 0.126964 0.00173303
0.075776 0.5 -1.2375 0.016021
0.075776 0.5 1.2375 0.0160113
0.523432 0.5 -1.125 0.00962865
0.523432 0.5 1.125 0.00962607
1.0271 0.5 -0.69963 0.00322942
1.0271 0.5 0.69963 0.0032296
1.24274 0.5 0.0314313 0.00168006
1.24274 0.5 -0.0314313 0.00168006
1.20942 0.5 0.29038 0.00187099
1.20942 0.5 -0.29038 0.00187102
1.11376 0.5 -0.554494 0.00250853
1.11376 0.5 0.554494 0.00250816
1.23036 0.5 -0.190445 0.00175398
1.23036 0.5 0.190445 0.00175347
1.24274 0.5 -0.0942942 0.00168816
1.24274 0.5 0.0942942 0.00168815
1.13882 0.5 0.510442 0.00235582
1.13882 0.5 -0.510442 0.00235598
0.969689 0.5 -0.7875 0.00379336
0.969689 0.5 0.7875 0.00379322
1.00005 0.5 -0.749309 0.00353356
1.00005 0.5 0.749309 0.00353298
0.939201 0.5 -0.825 0.00404232
0.939201 0.5 0.825 0.00404232
0.90582 0.5 0.8625 0.00431663
0.90582 0.5 -0.8625 0.00431658
1.17463 0.5 -0.430746 0.00211902
1.17463 0.5 0.430746 0.0021191
1.10076 0.5 -0.594676 0.00260354
1.10076 0.5 0.594676 0.00260262
1.18772 0.5 -0.393684 0.00203473
1.18772 0.5 0.393684 0.0020348
1.24274 0.5 -0.157157 0.00170377
1.24274 0.5 0.157157 0.00170376
1.16179 0.5 -0.468373 0.00221075
1.16179 0.5 0.468373 0.00221017
0.467897 0.5 -1.1625 0.0106133
0.467897 0.5 1.1625 0.0106096
0.872064 0.5 -0.9 0.0047249
0.872064 0.5 0.9 0.00472493
1.25401 0.5 2.08167e-17 0.00165081
0.835106 0.5 0.9375 0.00515118
0.835106 0.5 -0.9375 0.00515116
1.25401 0.5 -0.0622994 0.00165474
1.25401 0.5 0.0622994 0.00165437
1.08112 0.5 -0.638498 0.00274846
1.08112 0.5 0.638498 0.00274783
1.23036 0.5 -0.253927 0.00178343
1.23036 0.5 0.253927 0.00178273
0.219992 0.5 1.2375 0.0141244
0.219992 0.5 -1.2375 0.0141334
1.25309 0.5 0.121964 0.00166596
1.05695 0.5 0.685452 0.00295249
1.05695 0.5 -0.685452 0.00295377
0.797732 0.5 0.975 0.00564767
0.797732 0.5 -0.975 0.00564737
1.25401 0.5 -0.124599 0.00166615
1.20942 0.5 -0.354909 0.00191913
1.20942 0.5 0.354909 0.00191914
1.24274 0.5 -0.220019 0.00172752
1.24274 0.5 0.220019 0.00172749
0.756814 0.5 -1.0125 0.0061763
0.756813 0.5 1.0125 0.00617742
1.25401 0.5 -0.186898 0.00168505
1.25401 0.5 0.186898 0.00168476
0.411736 0.5 -1.2 0.0115926
0.411736 0.5 1.2 0.0115874
0 0.5 -1.26882 0.0114284
0 0.5 1.26882 0.0114226
0.0124865 0.5 1.26882 0.0121898
0.0124865 0.5 -1.26882 0.0121962
0.715434 0.5 -1.05 0.00680419
0.715434 0.5 1.05 0.0068041
1.23036 0.5 -0.31741 0.00182283
1.23036 0.5 0.31741 0.00182193
1.04168 0.5 -0.729162 0.00318478
1.04168 0.5 0.729162 0.00318497
1.18772 0.5 -0.459298 0.00210488
1.18772 0.5 0.459298 0.00210503
1.24274 0.5 -0.282882 0.00176007
1.24274 0.5 0.282882 0.00176003
0 0.5 -1.275 0.0114417
0 0.5 1.275 0.0114359
1.27472 0.5 -0.0306319 0.00158765
1.27472 0.5 0.0306319 0.00158763
1.17463 0.5 0.497015 0.00219529
1.17463 0.5 -0.497015 0.00219506
1.11376 0.5 -0.623806 0.0026107
1.11376 0.5 0.623806 0.00261012
1.13882 0.5 -0.578501 0.00245948
1.13882 0.5 0.578501 0.00245786
0.67013 0.5 -1.0875 0.00745844
0.67013 0.5 1.0875 0.00745779
1.27472 0.5 -0.0918959 0.00159473
1.27472 0.5 0.0918959 0.00160626
1.25401 0.5 -0.249197 0.00171217
1.25401 0.5 0.249197 0.00171176
1.16179 0.5 -0.535284 0.00230596
1.16179 0.5 0.535284 0.00230473
1.20942 0.5 -0.419438 0.00198091
1.20942 0.5 0.419438 0.00198092
0 0.5 -1.28118 0.0114554
0 0.5 1.28118 0.0114498
0.0124865 0.5 1.28118 0.0122267
0.0124865 0.5 -1.28118 0.0122328
1.27472 0.5 0.15316 0.00160833
1.27472 0.5 -0.15316 0.00160843
0.151149 0.5 -1.275 0.0151717