# nutMean  POINT_DATA 63140
# x  y  z  nutMean
0 0.1 0 0.0052199
0 0.1 -0.0179898 0.00521984
0 0.1 0.0179898 0.00522006
0.0363518 0.1 0.0179898 0.0118358
0.0363518 0.1 -0.0179898 0.0118427
0 0.1 -0.0570102 0.00523323
0 0.1 0.0570102 0.00523385
0.0363518 0.1 0.0570102 0.0118496
0.0363518 0.1 -0.0570102 0.0118561
0 0.1 -0.075 0.00524528
0 0.1 0.075 0.00524603
0.075776 0.1 -0.0375 0.0188355
0.075776 0.1 0.0375 0.0188215
0 0.1 -0.0929898 0.00525766
0 0.1 0.0929898 0.00525856
0.0363518 0.1 -0.0929898 0.0113738
0.0363518 0.1 0.0929898 0.0113583
0 0.1 -0.13201 0.00528621
0 0.1 0.13201 0.00528718
0.075776 0.1 -0.1125 0.0178166
0.075776 0.1 0.1125 0.0177838
0.0363518 0.1 -0.13201 0.0114023
0.0363518 0.1 0.13201 0.0113869
0 0.1 -0.15 0.00529981
0 0.1 0.15 0.0053007
0.150379 0.1 -2.22623e-17 0.018184
0 0.1 -0.16799 0.00531456
0 0.1 0.16799 0.0053154
0.150379 0.1 -0.075 0.0171903
0.150379 0.1 0.075 0.0171612
0.0363518 0.1 -0.16799 0.0105422
0.0363518 0.1 0.16799 0.0105267
0.075776 0.1 -0.1875 0.0160634
0.075776 0.1 0.1875 0.0160313
0 0.1 -0.20701 0.00533933
0 0.1 0.20701 0.00533988
0.0363518 0.1 -0.20701 0.010567
0.0363518 0.1 0.20701 0.0105512
0.150379 0.1 -0.15 0.0151794
0.150379 0.1 0.15 0.0151434
0.219993 0.1 -0.0375 0.0175676
0.219993 0.1 0.0375 0.0175631
0 0.1 -0.225 0.00534877
0 0.1 0.225 0.00534914
0 0.1 -0.24299 0.0053599
0 0.1 0.24299 0.0053601
0.0363518 0.1 0.24299 0.00989606
0.0363518 0.1 -0.24299 0.00990532
0.219993 0.1 -0.1125 0.0146175
0.219993 0.1 0.1125 0.0145525
0.150379 0.1 -0.225 0.01379
0.150379 0.1 0.225 0.0137739
0.075776 0.1 -0.2625 0.0147534
0.075776 0.1 0.2625 0.0147348
0 0.1 -0.28201 0.00536892
0 0.1 0.28201 0.00536877
0.0363518 0.1 -0.28201 0.00991434
0.0363518 0.1 0.28201 0.00990473
0.287374 0.1 -2.89121e-19 0.0136613
0.219992 0.1 0.1875 0.0123246
0.219992 0.1 -0.1875 0.0123386
0.287374 0.1 -0.075 0.0128871
0.287374 0.1 0.075 0.012868
0 0.1 -0.3 0.00536823
0 0.1 0.3 0.00536792
0 0.1 0.31799 0.00536821
0 0.1 -0.31799 0.00536868
0.0363518 0.1 -0.31799 0.00960245
0.0363518 0.1 0.31799 0.00959568
0.287374 0.1 0.15 0.0114513
0.287374 0.1 -0.15 0.0114739
0.150379 0.1 -0.3 0.0132047
0.150379 0.1 0.3 0.0131937
0.219993 0.1 0.2625 0.0121265
0.219993 0.1 -0.2625 0.0121268
0.075776 0.1 -0.3375 0.0141274
0.075776 0.1 0.3375 0.0141139
0.350249 0.1 -0.0375 0.00991769
0.350249 0.1 0.0375 0.00991623
0 0.1 -0.35701 0.00536346
0 0.1 0.35701 0.00536277
0.0363518 0.1 -0.35701 0.00959722
0.0363518 0.1 0.35701 0.00959024
0.287374 0.1 -0.225 0.0107726
0.287374 0.1 0.225 0.0107667
0.350249 0.1 -0.1125 0.00969357
0.350249 0.1 0.1125 0.00968686
0 0.1 -0.375 0.00535928
0 0.1 0.375 0.00535854
0 0.1 -0.39299 0.00535574
0 0.1 0.39299 0.00535495
0.0363518 0.1 -0.39299 0.00930491
0.0363518 0.1 0.39299 0.0092975
0.350249 0.1 -0.1875 0.00939182
0.350249 0.1 0.1875 0.00938606
0.219992 0.1 -0.3375 0.0119098
0.219992 0.1 0.3375 0.0118982
0.150379 0.1 0.375 0.0129337
0.150379 0.1 -0.375 0.0129394
0.411108 0.1 4.33681e-19 0.0081711
0.287374 0.1 -0.3 0.0106823
0.287374 0.1 0.3 0.0106779
0.411108 0.1 -0.075 0.00811599
0.411108 0.1 0.075 0.00811369
0.075776 0.1 -0.4125 0.0135311
0.075776 0.1 0.4125 0.0135168
0 0.1 0.43201 0.00533878
0 0.1 -0.43201 0.00533975
0.0363518 0.1 0.43201 0.00928132
0.0363518 0.1 -0.43201 0.00928891
0.411108 0.1 -0.15 0.00798589
0.411108 0.1 0.15 0.0079821
0.350249 0.1 -0.2625 0.00935162
0.350249 0.1 0.2625 0.00934819
0 0.1 -0.45 0.00532949
0 0.1 0.45 0.0053284
0.219992 0.1 0.4125 0.0122735
0.219992 0.1 -0.4125 0.0122572
0 0.1 -0.46799 0.00531952
0 0.1 0.46799 0.00531831
0.411108 0.1 -0.225 0.00791112
0.411108 0.1 0.225 0.00790821
0.467897 0.1 -0.0375 0.00649439
0.467897 0.1 0.0375 0.00649439
0.0363518 0.1 0.46799 0.00899373
0.0363518 0.1 -0.46799 0.00900098
0.287374 0.1 -0.375 0.0107808
0.287374 0.1 0.375 0.0107811
0.150379 0.1 0.45 0.0130475
0.150379 0.1 -0.45 0.0130506
0.467897 0.1 0.1125 0.00649046
0.467897 0.1 -0.1125 0.00649164
0.350249 0.1 -0.3375 0.00945404
0.350249 0.1 0.3375 0.00945181
0.075776 0.1 -0.4875 0.0129461
0.075776 0.1 0.4875 0.0129324
0.467897 0.1 0.1875 0.00648692
0.467897 0.1 -0.1875 0.00648862
0 0.1 -0.50701 0.00529482
0 0.1 0.50701 0.00529346
0.0363518 0.1 -0.50701 0.00897628
0.0363518 0.1 0.50701 0.00896887
0.411108 0.1 0.3 0.00795874
0.411108 0.1 -0.3 0.0079604
0.522865 0.1 1.41031e-17 0.00559715
0 0.1 -0.525 0.00528263
0 0.1 0.525 0.00528123
0.522865 0.1 -0.075 0.00560201
0.522865 0.1 0.075 0.0056016
0.287374 0.1 0.45 0.0112572
0.287374 0.1 -0.45 0.0112546
0.219992 0.1 0.4875 0.0134758
0.219992 0.1 -0.4875 0.0134775
0.467897 0.1 -0.2625 0.00652762
0.467897 0.1 0.2625 0.00652675
0.350249 0.1 -0.4125 0.00961471
0.350249 0.1 0.4125 0.00961367
0 0.1 -0.54299 0.00527018
0 0.1 0.54299 0.00526874
0.522865 0.1 0.15 0.00561579
0.522865 0.1 -0.15 0.00561664
0.0363518 0.1 0.54299 0.0087164
0.0363518 0.1 -0.54299 0.00872319
0.150379 0.1 -0.525 0.0131247
0.150379 0.1 0.525 0.0131136
0.411108 0.1 -0.375 0.00808762
0.411108 0.1 0.375 0.00808662
0.075776 0.1 -0.5625 0.012427
0.075776 0.1 0.5625 0.0124145
0.522865 0.1 -0.225 0.00565264
0.522865 0.1 0.225 0.00565174
0.574156 0.1 0.0375 0.00473392
0.574157 0.1 -0.0375 0.00473408
0.467897 0.1 -0.3375 0.00662372
0.467897 0.1 0.3375 0.00662356
0 0.1 -0.58201 0.00524484
0 0.1 0.58201 0.00524335
0.0363518 0.1 -0.58201 0.00869785
0.0363518 0.1 0.58201 0.00869101
0.574157 0.1 -0.1125 0.00475559
0.574157 0.1 0.1125 0.00475528
0.287374 0.1 -0.525 0.0116743
0.287374 0.1 0.525 0.0116676
0 0.1 -0.6 0.00523362
0 0.1 0.6 0.00523212
0.350249 0.1 0.4875 0.00981226
0.350249 0.1 -0.4875 0.00981478
0.522865 0.1 -0.3 0.00572595
0.522865 0.1 0.3 0.0057254
0.219992 0.1 -0.5625 0.0136059
0.219992 0.1 0.5625 0.0135891
0.574156 0.1 -0.1875 0.00479693
0.574156 0.1 0.1875 0.00479667
0.411108 0.1 0.45 0.00826318
0.411108 0.1 -0.45 0.00826436
0 0.1 -0.61799 0.00522186
0 0.1 0.61799 0.00522034
0.150379 0.1 -0.6 0.0128536
0.150379 0.1 0.6 0.0128394
0.0363518 0.1 -0.61799 0.00848007
0.0363518 0.1 0.61799 0.00847355
0.467897 0.1 -0.4125 0.00677547
0.467897 0.1 0.4125 0.00677482
0.623803 0.1 2.34188e-17 0.00421771
0.623803 0.1 0.075 0.00422884
0.623803 0.1 -0.075 0.00422901
0.574156 0.1 0.2625 0.00486146
0.574156 0.1 -0.2625 0.00486225
0.623803 0.1 0.15 0.00426139
0.623803 0.1 -0.15 0.00426166
0.075776 0.1 0.6375 0.0119663
0.075776 0.1 -0.6375 0.0119782
0.522865 0.1 -0.375 0.00584301
0.522865 0.1 0.375 0.00584273
0 0.1 0.65701 0.0051973
0 0.1 -0.65701 0.00519878
0.0363518 0.1 0.65701 0.00845051
0.0363518 0.1 -0.65701 0.00845699
0.350249 0.1 0.5625 0.00996013
0.350249 0.1 -0.5625 0.00996632
0.623803 0.1 0.225 0.00431595
0.623803 0.1 -0.225 0.00431646
0.287374 0.1 -0.6 0.0117036
0.287374 0.1 0.6 0.0116926
0.574157 0.1 -0.3375 0.00495486
0.574157 0.1 0.3375 0.00495447
0.411108 0.1 0.525 0.00845361
0.411108 0.1 -0.525 0.00845599
0.67013 0.1 0.0375 0.00371947
0.67013 0.1 -0.0375 0.0037196
0.219992 0.1 -0.6375 0.0133413
0.219993 0.1 0.6375 0.0133259
0 0.1 -0.675 0.00518868
0 0.1 0.675 0.00518725
0.467897 0.1 -0.4875 0.00697212
0.467897 0.1 0.4875 0.00697154
0.67013 0.1 -0.1125 0.00374296
0.67013 0.1 0.1125 0.00374283
0.522865 0.1 0.45 0.00600274
0.522865 0.1 -0.45 0.00600295
0.150379 0.1 0.675 0.0125046
0.150379 0.1 -0.675 0.0125176
0.623803 0.1 0.3 0.00439178
0.623803 0.1 -0.3 0.0043923
0 0.1 -0.69299 0.00517796
0 0.1 0.69299 0.00517658
0.0363518 0.1 -0.69299 0.00827395
0.0363518 0.1 0.69299 0.00826816
0.67013 0.1 -0.1875 0.0037872
0.67013 0.1 0.1875 0.00378683
0.574156 0.1 0.4125 0.00508359
0.574157 0.1 -0.4125 0.00508353
0.714971 0.1 -2.8382e-17 0.00337816
0.075776 0.1 -0.7125 0.0116009
0.075776 0.1 0.7125 0.0115904
0.714971 0.1 -0.075 0.00338934
0.714971 0.1 0.075 0.00338922
0.67013 0.1 0.2625 0.00385476
0.67013 0.1 -0.2625 0.00385541
0.411108 0.1 -0.6 0.00862209
0.411108 0.1 0.6 0.00861856
0.350249 0.1 0.6375 0.0100495
0.350249 0.1 -0.6375 0.0100557
0.623803 0.1 0.375 0.00449669
0.623803 0.1 -0.375 0.00449687
0.714971 0.1 -0.15 0.00342183
0.714971 0.1 0.15 0.00342158
0.467897 0.1 -0.5625 0.00719065
0.467897 0.1 0.5625 0.00719026
0 0.1 -0.73201 0.00515778
0 0.1 0.73201 0.00515645
0.0363518 0.1 0.73201 0.00824803
0.0363518 0.1 -0.73201 0.00825378
0.287374 0.1 -0.675 0.0116175
0.287374 0.1 0.675 0.0116069
0.522865 0.1 -0.525 0.00619662
0.522865 0.1 0.525 0.00619651
0.219993 0.1 -0.7125 0.0130809
0.219992 0.1 0.7125 0.0130664
0.714971 0.1 -0.225 0.00347547
0.714971 0.1 0.225 0.00347487
0 0.1 0.75 0.00514802
0 0.1 -0.75 0.00514936
0.67013 0.1 -0.3375 0.00393287
0.67013 0.1 0.3375 0.00393262
0.574156 0.1 -0.4875 0.0052478
0.574157 0.1 0.4875 0.00524809
0.756813 0.1 0.0375 0.00304762
0.756814 0.1 -0.0375 0.00304779
0.150379 0.1 0.746002 0.0122134
0.150379 0.1 -0.75 0.012227
0.756813 0.1 -0.1125 0.00306891
0.756813 0.1 0.1125 0.00306885
0 0.1 0.76799 0.00513894
0 0.1 -0.76799 0.00514029
0.0363518 0.1 0.76799 0.00810011
0.0363518 0.1 -0.76799 0.00810514
0.623803 0.1 -0.45 0.00463579
0.623803 0.1 0.45 0.00463587
0.714971 0.1 -0.3 0.00354768
0.714971 0.1 0.3 0.00354702
0.756814 0.1 -0.1875 0.00311021
0.756814 0.1 0.1875 0.00310975
0.67013 0.1 -0.4125 0.00405293
0.67013 0.1 0.4125 0.00405278
0.411108 0.1 0.675 0.00875602
0.411108 0.1 -0.675 0.00875944
0.467897 0.1 0.6375 0.00739095
0.467897 0.1 -0.6375 0.00739252
0.075776 0.1 0.7875 0.0112854
0.075776 0.1 -0.7875 0.0112943
0.350249 0.1 -0.7125 0.0101307
0.350249 0.1 0.7125 0.0101243
0.522865 0.1 -0.6 0.0064068
0.522865 0.1 0.6 0.00640654
0.797314 0.1 -3.59473e-17 0.00280646
0.287374 0.1 0.746002 0.0115571
0.797314 0.1 -0.075 0.00281638
0.797314 0.1 0.075 0.00281629
0.756814 0.1 -0.2625 0.00317119
0.756814 0.1 0.2625 0.00317027
0.287374 0.1 -0.75 0.0115397
0.574156 0.1 -0.5625 0.00544456
0.574156 0.1 0.5625 0.00544476
0 0.1 0.80701 0.00512252
0 0.1 -0.80701 0.00512384
0.714971 0.1 -0.375 0.00364186
0.714971 0.1 0.375 0.00364141
0.0363518 0.1 0.80701 0.00808369
0.0363518 0.1 -0.80701 0.00808868
0.797314 0.1 -0.15 0.00284564
0.797314 0.1 0.15 0.00284539
0.623803 0.1 -0.525 0.00480419
0.623803 0.1 0.525 0.00480436
0.219992 0.1 0.7875 0.0128429
0.219992 0.1 -0.7875 0.012857
0.149792 0.1 0.80701 0.0120253
0 0.1 0.825 0.00511604
0 0.1 -0.825 0.00511733
0.797314 0.1 -0.225 0.00289336
0.797314 0.1 0.225 0.00289285
0.756813 0.1 -0.3375 0.00325341
0.756813 0.1 0.3375 0.00325258
0.67013 0.1 0.4875 0.00419633
0.67013 0.1 -0.4875 0.0041962
0.835106 0.1 -0.0375 0.00257221
0.835106 0.1 0.0375 0.0025721
0.150379 0.1 -0.825 0.0119852
0.835106 0.1 -0.1125 0.00259052
0.835106 0.1 0.1125 0.00259051
0 0.1 -0.84299 0.00511013
0 0.1 0.84299 0.00510889
0.0363518 0.1 -0.84299 0.00797192
0.0363518 0.1 0.84299 0.00796717
0.714971 0.1 -0.45 0.00376317
0.714971 0.1 0.45 0.00376294
0.411108 0.1 0.746002 0.00890616
0.797314 0.1 -0.3 0.00296074
0.797314 0.1 0.3 0.00296004
0.467897 0.1 -0.7125 0.00757088
0.467897 0.1 0.7125 0.00757114
0.522865 0.1 0.675 0.00662065
0.522865 0.1 -0.675 0.0066208
0.411108 0.1 -0.75 0.00889455
0.835106 0.1 -0.1875 0.00262693
0.835107 0.1 0.1875 0.00262647
0.286844 0.1 0.80701 0.0114877
0.574156 0.1 0.6375 0.0056686
0.574157 0.1 -0.6375 0.00566794
0.350249 0.1 -0.7875 0.0102139
0.350249 0.1 0.7875 0.0102054
0.756813 0.1 -0.4125 0.00335068
0.756814 0.1 0.4125 0.00335014
0.623803 0.1 -0.6 0.00500088
0.623803 0.1 0.6 0.00500112
0.075776 0.1 0.8625 0.0110449
0.075776 0.1 -0.8625 0.0110534
0.871687 0.1 -3.2767e-18 0.00239277
0.287374 0.1 -0.825 0.0114835
0.871687 0.1 -0.075 0.00240137
0.871687 0.1 0.075 0.00240129
0.67013 0.1 -0.5625 0.00436646
0.67013 0.1 0.5625 0.00436652
0.835106 0.1 0.2625 0.0026791
0.835106 0.1 -0.2625 0.00267932
0.797314 0.1 -0.375 0.00304426
0.797314 0.1 0.375 0.00304354
0 0.1 -0.88201 0.00509777
0 0.1 0.88201 0.00509659
0.0363518 0.1 0.88201 0.00795488
0.0363518 0.1 -0.88201 0.00795956
0.871687 0.1 0.15 0.00242666
0.871687 0.1 -0.15 0.00242685
0.714971 0.1 0.525 0.0039103
0.714971 0.1 -0.525 0.00391041
0.219993 0.1 0.8625 0.0126443
0.219992 0.1 -0.8625 0.0126572
0 0.1 0.9 0.00509215
0 0.1 -0.9 0.00509331
0.756813 0.1 0.4875 0.00347568
0.756814 0.1 -0.4875 0.00347602
0.871687 0.1 0.225 0.00246807
0.871687 0.1 -0.225 0.00246825
0.835106 0.1 -0.3375 0.0027535
0.835106 0.1 0.3375 0.00275266
0.41063 0.1 0.80701 0.00900873
0.90582 0.1 -0.0375 0.00221796
0.905821 0.1 0.0375 0.0022179
0.522865 0.1 0.746002 0.00685051
0.150379 0.1 0.9 0.0117786
0.90582 0.1 0.1125 0.00223377
0.905821 0.1 -0.1125 0.0022339
0.522865 0.1 -0.75 0.00684702
0.574156 0.1 0.7125 0.00591761
0.574156 0.1 -0.7125 0.0059176
0.797314 0.1 -0.45 0.00314799
0.797314 0.1 0.45 0.00314743
0.467897 0.1 -0.7875 0.00776887
0.467897 0.1 0.7875 0.00776484
0.150379 0.1 -0.903998 0.0118227
0 0.1 0.91799 0.00508699
0 0.1 -0.91799 0.00508812
0.0363518 0.1 0.91799 0.00786697
0.0363518 0.1 -0.91799 0.00787086
0.623803 0.1 0.675 0.00522442
0.623803 0.1 -0.675 0.00522417
0.411108 0.1 -0.825 0.00905321
0.871687 0.1 0.3 0.00252706
0.871687 0.1 -0.3 0.00252737
0.67013 0.1 -0.6375 0.00456381
0.67013 0.1 0.6375 0.00456385
0.90582 0.1 -0.1875 0.00226529
0.90582 0.1 0.1875 0.00226511
0.350249 0.1 0.8625 0.0103087
0.350249 0.1 -0.8625 0.0103155
0.835106 0.1 -0.4125 0.00283426
0.835106 0.1 0.4125 0.0028336
0.714971 0.1 -0.6 0.00408375
0.714971 0.1 0.6 0.00408359
0.93886 0.1 -1.15648e-17 0.00212014
0.075776 0.1 0.9375 0.0108634
0.075776 0.1 -0.9375 0.0108702
0.93886 0.1 0.075 0.00212759
0.93886 0.1 -0.075 0.00212772
0.756813 0.1 0.5625 0.00362651
0.756814 0.1 -0.5625 0.00362678
0.905821 0.1 -0.2625 0.00231082
0.905821 0.1 0.2625 0.00231096
0.287374 0.1 0.9 0.0114423
0.287374 0.1 -0.903998 0.0114296
0.871687 0.1 0.375 0.00259924
0.871687 0.1 -0.375 0.00259992
0.93886 0.1 -0.15 0.00215
0.93886 0.1 0.15 0.0021498
0.797314 0.1 0.525 0.00327726
0.797314 0.1 -0.525 0.00327767
0 0.1 0.95701 0.00507893
0 0.1 -0.95701 0.00508011
0.0363518 0.1 0.95701 0.0078589
0.0363518 0.1 -0.95701 0.00786285
0.522433 0.1 0.80701 0.00703689
0.219992 0.1 0.9375 0.0124814
0.219992 0.1 -0.9375 0.012492
0.93886 0.1 0.225 0.0021861
0.93886 0.1 -0.225 0.0021862
0.90582 0.1 0.3375 0.00237511
0.905821 0.1 -0.3375 0.00237542
0.835106 0.1 -0.4875 0.00294627
0.835107 0.1 0.4875 0.00294559
0.969689 0.1 -0.0375 0.0020244
0.969689 0.1 0.0375 0.00202436
0.61613 0.1 0.75 0.00547439
0.574156 0.1 -0.7875 0.00619247
0.574156 0.1 0.7875 0.00619354
0 0.1 0.975 0.00507656
0 0.1 -0.975 0.00507781
0.623803 0.1 -0.75 0.00547376
0.969689 0.1 -0.1125 0.0020387
0.969689 0.1 0.1125 0.00203844
0.522865 0.1 -0.825 0.00710197
0.67013 0.1 0.7125 0.00478781
0.67013 0.1 -0.7125 0.00478752
0.871687 0.1 -0.45 0.00269115
0.871687 0.1 0.45 0.00269033
0.467897 0.1 0.8625 0.00800907
0.467897 0.1 -0.8625 0.00801433
0.714971 0.1 -0.675 0.00428318
0.714971 0.1 0.675 0.00428304
0.93886 0.1 -0.3 0.0022374
0.93886 0.1 0.3 0.00223726
0.150379 0.1 0.975 0.0116311
0.150379 0.1 -0.975 0.0116396
0.969689 0.1 -0.1875 0.00206626
0.969689 0.1 0.1875 0.00206603
0.411108 0.1 0.9 0.00923824
0.756813 0.1 0.6375 0.00380203
0.756814 0.1 -0.6375 0.00380248
0.990306 0.1 -2.19732e-17 0.00194782
0 0.1 0.99299 0.00507342
0 0.1 -0.99299 0.00507474
0.411108 0.1 -0.903998 0.00919937
0.990306 0.1 -0.075 0.00195463
0.990306 0.1 0.075 0.00195446
0.0363518 0.1 0.99299 0.00779644
0.0363518 0.1 -0.99299 0.00780026
0.90582 0.1 -0.4125 0.00244636
0.905821 0.1 0.4125 0.00244541
0.797314 0.1 -0.6 0.00343037
0.797314 0.1 0.6 0.00342999
0.350249 0.1 0.9375 0.010431
0.350249 0.1 -0.9375 0.0104338
0.990306 0.1 0.15 0.00197438
0.990306 0.1 -0.15 0.00197466
0.969689 0.1 -0.2625 0.00210669
0.969689 0.1 0.2625 0.00210654
0.835106 0.1 -0.5625 0.00307738
0.835106 0.1 0.5625 0.00307706
0.93886 0.1 -0.375 0.0023021
0.93886 0.1 0.375 0.00230156
0.075776 0.1 1.0125 0.0107342
0.075776 0.1 -1.0125 0.0107408
0.990306 0.1 -0.225 0.0020075
0.990306 0.1 0.225 0.0020073
0.287374 0.1 0.975 0.011439
0.287374 0.1 -0.975 0.0114464
0.871687 0.1 -0.525 0.00280683
0.871687 0.1 0.525 0.00280625
1.02149 0.1 -0.0369628 0.00180355
1.02149 0.1 0.0369628 0.00180346
0.969689 0.1 -0.3375 0.00216109
0.969689 0.1 0.3375 0.00216086
1.02149 0.1 -0.110888 0.00181532
1.02149 0.1 0.110888 0.00181491
0.90582 0.1 0.4875 0.00254683
0.90582 0.1 -0.4875 0.00254782
0.623803 0.1 0.819003 0.00563797
0 0.1 1.03201 0.00506956
0 0.1 -1.03201 0.00507088
0.0363518 0.1 1.03201 0.00779258
0.0363518 0.1 -1.03201 0.00779639
0.67013 0.1 -0.7875 0.00503848
0.67013 0.1 0.7875 0.00503962
0.623803 0.1 -0.825 0.00575022
0.990306 0.1 -0.3 0.00205351
0.990306 0.1 0.3 0.00205334
0.219992 0.1 -1.0125 0.0123744
0.219993 0.1 1.0125 0.0123644
0.574156 0.1 0.8625 0.00649216
0.574157 0.1 -0.8625 0.0064914
0.714971 0.1 -0.75 0.00450898
0.714971 0.1 0.75 0.00450928
1.02149 0.1 0.184814 0.00183849
1.02149 0.1 -0.184814 0.0018389
0.756814 0.1 -0.7125 0.00400419
0.756814 0.1 0.7125 0.00400378
0.522865 0.1 0.9 0.00738053
0.93886 0.1 -0.45 0.00238508
0.93886 0.1 0.45 0.00238446
1.04168 0.1 0 0.00173514
1.04168 0.1 -0.0729162 0.00174028
1.04168 0.1 0.0729162 0.00174009
0.522865 0.1 -0.903998 0.00733738
0.797314 0.1 -0.675 0.00360805
0.797314 0.1 0.675 0.0036074
0.467897 0.1 0.9375 0.00829773
0.467897 0.1 -0.9375 0.00830054
0 0.1 1.05 0.00506921
0 0.1 -1.05 0.00507045
0.835106 0.1 -0.6375 0.00323129
0.835106 0.1 0.6375 0.0032308
1.04168 0.1 -0.145832 0.00175559
1.04168 0.1 0.145832 0.00175529
1.02149 0.1 -0.25874 0.00187444
1.02149 0.1 0.25874 0.00187412
0.969689 0.1 -0.4125 0.00223008
0.969689 0.1 0.4125 0.00222942
0.411108 0.1 0.975 0.00945339
0.411108 0.1 -0.975 0.00945736
0.871687 0.1 -0.6 0.00294337
0.871687 0.1 0.6 0.00294305
1.0579 0.1 -0.0360525 0.0016859
1.0579 0.1 0.0360525 0.00168576
0.990306 0.1 -0.375 0.00211397
0.990306 0.1 0.375 0.00211357
0.150379 0.1 1.05 0.0115302
0.150379 0.1 -1.05 0.0115385
1.0579 0.1 0.108157 0.00169443
1.0579 0.1 -0.108157 0.00169499
1.04168 0.1 -0.218749 0.00178128
1.04168 0.1 0.218749 0.00178106
0.90582 0.1 -0.5625 0.00266627
0.90582 0.1 0.5625 0.00266597
0 0.1 -1.06799 0.00506921
0 0.1 1.06799 0.00506805
0.0363518 0.1 -1.06799 0.00775557
0.0363518 0.1 1.06799 0.00775209
0.350249 0.1 1.0125 0.0105636
0.350249 0.1 -1.0125 0.0105702
1.0579 0.1 -0.180262 0.00171279
1.0579 0.1 0.180262 0.00171208
1.02149 0.1 -0.332665 0.00192257
1.02149 0.1 0.332665 0.00192219
0.93886 0.1 -0.525 0.00249438
0.93886 0.1 0.525 0.002494
1.08012 0.1 5.49329e-18 0.00162988
1.04168 0.1 -0.291665 0.00181772
1.04168 0.1 0.291665 0.00181759
1.08012 0.1 0.0709941 0.00163391
1.08012 0.1 -0.0709941 0.00163414
0.969689 0.1 -0.4875 0.00232076
0.96969 0.1 0.4875 0.00232089
1.0579 0.1 0.252367 0.00173916
1.0579 0.1 -0.252367 0.00173996
0.990306 0.1 -0.45 0.0021923
0.990306 0.1 0.45 0.00219196
0.287374 0.1 -1.05 0.0114735
0.287374 0.1 1.05 0.011465
0.714971 0.1 0.821002 0.00473729
1.08012 0.1 -0.141988 0.00164654
1.08012 0.1 0.141988 0.00164614
0.075776 0.1 1.0875 0.0106503
0.075776 0.1 -1.0875 0.0106562
0.714971 0.1 -0.825 0.00476369
0.756813 0.1 -0.7875 0.00423173
0.756814 0.1 0.7875 0.00423197
0.67013 0.1 -0.8625 0.00532037
0.67013 0.1 0.8625 0.00532166
0.797314 0.1 -0.75 0.00381166
0.797314 0.1 0.75 0.00381106
0.623803 0.1 0.9 0.00604628
0.835106 0.1 -0.7125 0.00341135
0.835106 0.1 0.7125 0.00341012
0.623803 0.1 -0.903998 0.00600313
0.574156 0.1 0.9375 0.00678199
0.574156 0.1 -0.9375 0.00678284
1.02149 0.1 -0.406591 0.00198652
1.02149 0.1 0.406591 0.00198579
1.08012 0.1 -0.212982 0.00166724
1.08012 0.1 0.212982 0.00166683
1.10076 0.1 -0.0349809 0.00157902
1.10076 0.1 0.0349809 0.00157901
0.871687 0.1 -0.675 0.00310471
0.871687 0.1 0.675 0.00310408
1.04168 0.1 -0.364581 0.00186687
1.04168 0.1 0.364581 0.00186665
1.10076 0.1 -0.104943 0.00158712
1.10076 0.1 0.104943 0.00158691
0.522865 0.1 0.975 0.00767579
0.522865 0.1 -0.975 0.00767824
1.0579 0.1 -0.324472 0.00177697
1.0579 0.1 0.324472 0.00177607
0 0.1 -1.10701 0.00506911
0 0.1 1.10701 0.00506824
0.0363518 0.1 1.10701 0.00775228
0.0363518 0.1 -1.10701 0.00775548
0.90582 0.1 0.6375 0.00280911
0.905821 0.1 -0.6375 0.00280931
0.219992 0.1 1.0875 0.0122908
0.219992 0.1 -1.0875 0.0123015
0.93886 0.1 0.6 0.00262336
0.93886 0.1 -0.6 0.00262367
1.10076 0.1 -0.174905 0.00160272
1.10076 0.1 0.174905 0.00160251
0.467897 0.1 1.0125 0.00860805
0.467897 0.1 -1.0125 0.00861191
1.08012 0.1 -0.283976 0.00169667
1.08012 0.1 0.283976 0.00169631
1.11928 0.1 3.93204e-18 0.001541
0.990306 0.1 -0.525 0.00229745
0.990306 0.1 0.525 0.00229722
0.96969 0.1 -0.5625 0.00244742
0.969689 0.1 0.5625 0.00244703
1.11928 0.1 -0.0690357 0.00154476
1.11928 0.1 0.0690357 0.00154458
0 0.1 1.125 0.00506982
0 0.1 -1.125 0.00507052
0.411108 0.1 -1.05 0.00969253
0.411108 0.1 1.05 0.00968812
1.10076 0.1 0.244866 0.00162638
1.10076 0.1 -0.244866 0.00162648
1.11928 0.1 -0.138072 0.00155561
1.11928 0.1 0.138072 0.0015553
1.02149 0.1 0.480517 0.00206766
1.02149 0.1 -0.480517 0.00206852
1.0579 0.1 -0.396577 0.00182714
1.0579 0.1 0.396577 0.00182579
1.04168 0.1 -0.437497 0.00193114
1.04168 0.1 0.437497 0.00193071
0.150379 0.1 1.125 0.0114699
0.150379 0.1 -1.125 0.0114785
0.714971 0.1 0.88201 0.00478081
1.08012 0.1 0.354971 0.00173614
1.08012 0.1 -0.354971 0.0017366
1.11928 0.1 -0.207107 0.0015736
1.11928 0.1 0.207107 0.00157333
0.350249 0.1 -1.0875 0.0107218
0.350249 0.1 1.0875 0.0107149
0 0.1 1.14299 0.00507051
0 0.1 -1.14299 0.00507103
0.0363518 0.1 1.14299 0.00772995
0.0363518 0.1 -1.14299 0.00773272
1.14316 0.1 -0.0339211 0.00148704
1.14316 0.1 0.0339211 0.0014869
0.797314 0.1 0.821002 0.00403764
1.10076 0.1 -0.314829 0.00165853
1.10076 0.1 0.314829 0.0016586
0.797314 0.1 -0.825 0.00404336
0.756814 0.1 -0.8625 0.00449089
0.756814 0.1 0.8625 0.00449142
1.14316 0.1 -0.101763 0.00149373
1.14316 0.1 0.101763 0.00149323
0.835106 0.1 -0.7875 0.00361716
0.835106 0.1 0.7875 0.00361619
0.871687 0.1 -0.75 0.00329303
0.871687 0.1 0.75 0.00329213
0.67013 0.1 0.9375 0.00563091
0.67013 0.1 -0.9375 0.00562947
0.90582 0.1 -0.7125 0.00297796
0.905821 0.1 0.7125 0.00297736
0.714971 0.1 -0.903998 0.0050111
1.11928 0.1 0.276143 0.00159905
1.11928 0.1 -0.276143 0.00159917
1.14316 0.1 0.169605 0.00150579
1.14316 0.1 -0.169605 0.00150638
0.93886 0.1 -0.675 0.00276913
0.93886 0.1 0.675 0.00276871
1.15704 0.1 0 0.00145936
1.0579 0.1 0.468682 0.00188995
1.0579 0.1 -0.468682 0.00189181
0.623803 0.1 0.975 0.0063537
0.623803 0.1 -0.975 0.00635416
0.990306 0.1 0.6 0.00241737
0.990306 0.1 -0.6 0.00241773
1.15704 0.1 -0.0671479 0.00146257
1.15704 0.1 0.0671479 0.00146234
1.04168 0.1 -0.510414 0.00201452
1.04168 0.1 0.510414 0.00201407
0.969689 0.1 -0.6375 0.00257649
0.969689 0.1 0.6375 0.00257614
1.08012 0.1 0.425965 0.00178812
1.08012 0.1 -0.425965 0.00178889
0.287374 0.1 -1.125 0.0115404
0.287374 0.1 1.125 0.0115315
1.02149 0.1 -0.554443 0.00217444
1.02149 0.1 0.554443 0.00217362
0.574156 0.1 1.0125 0.00707464
0.574156 0.1 -1.0125 0.00707705
1.15704 0.1 -0.134296 0.00147166
1.15704 0.1 0.134296 0.00147133
0.075776 0.1 1.1625 0.0106038
0.075776 0.1 -1.1625 0.0106088
1.10076 0.1 -0.384791 0.00170179
1.10076 0.1 0.384791 0.00170179
1.14316 0.1 -0.237448 0.00152559
1.14316 0.1 0.237448 0.00152507
1.11928 0.1 -0.345179 0.00163375
1.11928 0.1 0.345179 0.00163368
0.522865 0.1 1.05 0.00799631
0.522865 0.1 -1.05 0.00799725
1.15704 0.1 -0.201444 0.00148655
1.15704 0.1 0.201444 0.00148639
1.1744 0.1 -0.0331401 0.00142722
1.1744 0.1 0.0331401 0.00142715
1.1744 0.1 -0.0994202 0.00143318
1.1744 0.1 0.0994202 0.00143267
0 0.1 1.18201 0.00507408
0 0.1 -1.18201 0.00507451
0.0363518 0.1 1.18201 0.00773351
0.0363518 0.1 -1.18201 0.0077362
0.219992 0.1 1.1625 0.0122531
0.219993 0.1 -1.1625 0.0122659
1.14316 0.1 0.30529 0.00155136
1.14316 0.1 -0.30529 0.00155177
0.467897 0.1 1.0875 0.00894498
0.467897 0.1 -1.0875 0.00894548
1.1744 0.1 -0.1657 0.00144405
1.1744 0.1 0.1657 0.00144375
1.15704 0.1 -0.268592 0.00150769
1.15704 0.1 0.268592 0.00150779
1.0579 0.1 0.540787 0.00197266
1.0579 0.1 -0.540787 0.00197452
0.796996 0.1 0.88201 0.00424005
1.08012 0.1 -0.496959 0.00185644
1.08012 0.1 0.496959 0.00185545
1.10076 0.1 0.454752 0.00175594
1.10076 0.1 -0.454752 0.00175627
1.11928 0.1 -0.414214 0.00167893
1.11928 0.1 0.414214 0.00167859
1.04168 0.1 -0.58333 0.00210534
1.04168 0.1 0.58333 0.00210501
1.1744 0.1 -0.231981 0.0014605
1.1744 0.1 0.231981 0.00146042
0.871687 0.1 0.821002 0.00349593
0.411108 0.1 1.125 0.0099538
0.411108 0.1 -1.125 0.00995706
1.19808 0.1 1.73472e-17 0.00137862
0.990306 0.1 0.675 0.00254902
0.990306 0.1 -0.675 0.00254936
1.02149 0.1 0.628368 0.00227566
1.02149 0.1 -0.628368 0.00227649
1.19808 0.1 -0.0650961 0.00138145
1.19808 0.1 0.0650961 0.00138119
0 0.1 1.2 0.00507706
0 0.1 -1.2 0.00507758
0.871687 0.1 -0.825 0.00350236
0.905821 0.1 -0.7875 0.00317699
0.90582 0.1 0.7875 0.00317619
0.835106 0.1 -0.8625 0.00385212
0.835106 0.1 0.8625 0.00385138
0.93886 0.1 -0.75 0.00293134
0.93886 0.1 0.75 0.00293061
1.14316 0.1 -0.373132 0.00158709
1.14316 0.1 0.373132 0.00158651
0.969689 0.1 0.7125 0.00271755
0.969689 0.1 -0.7125 0.00271806
1.15704 0.1 -0.33574 0.0015363
1.15704 0.1 0.33574 0.00153659
0.756813 0.1 0.9375 0.00478752
0.756814 0.1 -0.9375 0.00478607
1.19808 0.1 0.130192 0.00138896
1.19808 0.1 -0.130192 0.00138934
0.797314 0.1 -0.903998 0.00427154
0.714971 0.1 0.975 0.00536805
0.714971 0.1 -0.975 0.00536702
0.150379 0.1 1.2 0.0114446
0.150379 0.1 -1.2 0.0114529
1.20938 0.1 -0.0322656 0.00135923
1.20938 0.1 0.0322656 0.00135917
1.1744 0.1 -0.298261 0.00148276
1.1744 0.1 0.298261 0.00148297
1.20938 0.1 -0.0967968 0.00136465
1.20938 0.1 0.0967968 0.00136422
1.19808 0.1 -0.195288 0.00140205
1.19808 0.1 0.195288 0.00140189
0.350249 0.1 1.1625 0.0109293
0.350249 0.1 -1.1625 0.0109349
0.67013 0.1 1.0125 0.00596726
0.67013 0.1 -1.0125 0.00596734
0 0.1 1.21799 0.00507908
0 0.1 -1.21799 0.0050797
0.0363518 0.1 -1.21799 0.00772781
0.0363518 0.1 1.21799 0.00772513
1.11928 0.1 -0.48325 0.00173637
1.11928 0.1 0.48325 0.0017358
1.10076 0.1 -0.524714 0.00182683
1.10076 0.1 0.524714 0.00182658
1.20938 0.1 0.161328 0.00137423
1.20938 0.1 -0.161328 0.00137453
1.08012 0.1 0.567953 0.00192851
1.08012 0.1 -0.567953 0.00192954
0.623803 0.1 1.05 0.0066853
0.623803 0.1 -1.05 0.0066853
1.0579 0.1 -0.612892 0.0020527
1.0579 0.1 0.612892 0.00205078
1.15704 0.1 -0.402888 0.00157392
1.15704 0.1 0.402888 0.00157405
1.14316 0.1 0.440974 0.00163117
1.14316 0.1 -0.440974 0.00163234
1.19808 0.1 -0.260384 0.00141991
1.19808 0.1 0.260384 0.00142004
1.2267 0.1 3.57064e-18 0.00132602
1.2267 0.1 -0.0636649 0.00132862
1.2267 0.1 0.0636649 0.00132845
1.1744 0.1 -0.364541 0.00151278
1.1744 0.1 0.364541 0.00151312
0.574156 0.1 1.0875 0.00741714
0.574156 0.1 -1.0875 0.00741423
1.20938 0.1 0.225859 0.00138922
1.20938 0.1 -0.225859 0.00138924
1.04168 0.1 -0.656246 0.00220984
1.04168 0.1 0.656246 0.00220966
1.2267 0.1 -0.12733 0.00133599
1.2267 0.1 0.12733 0.00133575
0.287374 0.1 1.2 0.0116577
0.287374 0.1 -1.2 0.0116657
1.02149 0.1 -0.702294 0.00241269
1.02149 0.1 0.702294 0.00241191
0.075776 0.1 -1.2375 0.0105909
0.075776 0.1 1.2375 0.010586
0.871399 0.1 0.88201 0.00367882
0.522865 0.1 1.125 0.00834524
0.522865 0.1 -1.125 0.00834471
1.2267 0.1 -0.190994 0.00134793
1.2267 0.1 0.190994 0.00134785
1.19808 0.1 -0.32548 0.00144378
1.19808 0.1 0.32548 0.00144408
0.990306 0.1 -0.75 0.00269528
0.990306 0.1 0.75 0.00269466
1.24274 0.1 -0.0314313 0.0012953
1.24274 0.1 0.0314313 0.0012952
1.20938 0.1 -0.29039 0.00140895
1.20938 0.1 0.29039 0.00140925
1.24274 0.1 -0.0942942 0.00130013
1.24274 0.1 0.0942942 0.00130001
0.93886 0.1 0.821002 0.00310623
1.11928 0.1 -0.552285 0.00180361
1.11928 0.1 0.552285 0.00180279
1.15704 0.1 -0.470036 0.00162105
1.15704 0.1 0.470036 0.00162093
0.969689 0.1 -0.7875 0.0028587
0.96969 0.1 0.7875 0.0028577
0.93886 0.1 -0.825 0.00311301
0.90582 0.1 0.8625 0.00337421
0.905821 0.1 -0.8625 0.00337507
1.1744 0.1 -0.430821 0.00155153
1.1744 0.1 0.430821 0.00155151
1.10076 0.1 -0.594676 0.00189246
1.10076 0.1 0.594676 0.00189154
1.14316 0.1 -0.508816 0.00168918
1.14316 0.1 0.508816 0.00168768
1.24274 0.1 -0.157157 0.00130944
1.24274 0.1 0.157157 0.00130937
1.2267 0.1 -0.254659 0.00136464
1.2267 0.1 0.254659 0.00136486
0.467897 0.1 1.1625 0.00929862
0.467897 0.1 -1.1625 0.00929894
1.08012 0.1 0.638947 0.00201309
1.08012 0.1 -0.638947 0.00201422
1.25511 0.1 -5.78241e-19 0.00127164
0.835106 0.1 -0.9375 0.00411522
0.835106 0.1 0.9375 0.00411476
0.871687 0.1 -0.903998 0.00371132
1.25511 0.1 0.0622446 0.00127389
1.25511 0.1 -0.0622446 0.00127409
0.219992 0.1 1.2375 0.0122536
0.219992 0.1 -1.2375 0.0122639
0 0.1 -1.25701 0.00508657
0 0.1 1.25701 0.00508594
0.0363518 0.1 -1.25701 0.00773468
0.0363518 0.1 1.25701 0.00773199
0.797314 0.1 0.975 0.00460183
0.797314 0.1 -0.975 0.00460081
1.19808 0.1 -0.390576 0.00147499
1.19808 0.1 0.390576 0.00147525
1.0579 0.1 -0.684997 0.00216222
1.0579 0.1 0.684997 0.00216001
1.20938 0.1 -0.354921 0.00143505
1.20938 0.1 0.354921 0.00143536
1.25511 0.1 0.124489 0.0012808
1.25511 0.1 -0.124489 0.00128104
1.24274 0.1 -0.220019 0.00132329
1.24274 0.1 0.220019 0.00132342
0.756813 0.1 1.0125 0.00511404
0.756814 0.1 -1.0125 0.00511274
1.2267 0.1 -0.318324 0.00138667
1.2267 0.1 0.318324 0.00138707
0.411108 0.1 1.2 0.0102524
0.411108 0.1 -1.2 0.0102543
1.25511 0.1 -0.186734 0.00129247
1.25511 0.1 0.186734 0.00129222
0.714971 0.1 1.05 0.00571059
0.714971 0.1 -1.05 0.00571019
1.04168 0.1 -0.729162 0.00234443
1.04168 0.1 0.729162 0.00234416
1.24274 0.1 0.282882 0.00134234
1.24274 0.1 -0.282882 0.00134177
0 0.1 1.275 0.0050908
0 0.1 -1.275 0.00509133
1.1744 0.1 0.497102 0.00159836
1.1744 0.1 -0.497102 0.00159857
1.15704 0.1 -0.537184 0.00168222
1.15704 0.1 0.537184 0.0016819
1.2756 0.1 -0.03061 0.00123066
1.2756 0.1 0.03061 0.00123049
0.67013 0.1 1.0875 0.00632144
0.67013 0.1 -1.0875 0.00632184
1.2756 0.1 -0.09183 0.00123501
1.2756 0.1 0.09183 0.001235
1.25511 0.1 -0.248978 0.00130848
1.25511 0.1 0.248978 0.00130843
1.20938 0.1 0.419453 0.00146895
1.20938 0.1 -0.419453 0.0014687
1.11928 0.1 -0.621322 0.0018768
1.11928 0.1 0.621322 0.00187582
1.14316 0.1 -0.576659 0.00175881
1.14316 0.1 0.576659 0.00175692
1.19808 0.1 -0.455673 0.00151363
1.19808 0.1 0.455673 0.00151368
1.02149 0.1 0.776219 0.00257271
1.02149 0.1 -0.776219 0.00257405
0.150379 0.1 1.275 0.0114496
0.150379 0.1 -1.275 0.0114568
1.2756 0.1 -0.15305 0.00124375