# pMean  POINT_DATA 63840
# x  y  z  pMean
0 0.5 3.39583e-17 0.192499
0 0.5 -0.00617931 0.192501
0 0.5 0.00617931 0.1925
0.0124865 0.5 -0.00617931 0.192501
0.0124865 0.5 0.00617931 0.1925
0 0.5 -0.0688207 0.192229
0 0.5 0.0688207 0.192215
0.0124865 0.5 -0.0688207 0.192229
0.0124865 0.5 0.0688207 0.192215
0 0.5 -0.075 0.192172
0 0.5 0.075 0.192157
0 0.5 -0.0811793 0.19212
0 0.5 0.0811793 0.192103
0.0124865 0.5 -0.0811793 0.19212
0.0124865 0.5 0.0811793 0.192103
0.075776 0.5 -0.0375 0.192514
0.075776 0.5 0.0375 0.192506
0.075776 0.5 -0.1125 0.191854
0.075776 0.5 0.1125 0.19183
0 0.5 -0.143821 0.19131
0 0.5 0.143821 0.19128
0.0124865 0.5 -0.143821 0.19131
0.0124865 0.5 0.143821 0.19128
0 0.5 -0.15 0.191202
0 0.5 0.15 0.191171
0.151149 0.5 -0.00137318 0.192878
0 0.5 -0.156179 0.191098
0 0.5 0.156179 0.191066
0.0124865 0.5 -0.156179 0.191098
0.0124865 0.5 0.156179 0.191066
0.151149 0.5 0.075 0.192542
0.151149 0.5 -0.075 0.192558
0.075776 0.5 -0.1875 0.190574
0.075776 0.5 0.1875 0.190535
0.151149 0.5 0.15 0.191547
0.151149 0.5 -0.15 0.191577
0 0.5 -0.218821 0.189769
0 0.5 0.218821 0.189724
0.0124865 0.5 -0.218821 0.189769
0.0124865 0.5 0.218821 0.189724
0.219992 0.5 0.0375 0.193241
0.219993 0.5 -0.0375 0.193249
0 0.5 -0.225 0.189609
0 0.5 0.225 0.189563
0 0.5 -0.231179 0.189453
0 0.5 0.231179 0.189406
0.0124865 0.5 -0.231179 0.189453
0.0124865 0.5 0.231179 0.189406
0.219992 0.5 0.1125 0.192579
0.219993 0.5 -0.1125 0.192601
0.151149 0.5 -0.225 0.189957
0.151149 0.5 0.225 0.189911
0.075776 0.5 -0.2625 0.188667
0.075776 0.5 0.2625 0.188613
0.288069 0.5 -0.00137318 0.196618
0.219992 0.5 0.1875 0.191231
0.219993 0.5 -0.1875 0.191269
0 0.5 0.293821 0.187557
0 0.5 -0.293821 0.187616
0.0124865 0.5 -0.293821 0.187616
0.0124865 0.5 0.293821 0.187557
0.288069 0.5 -0.075 0.196298
0.288069 0.5 0.075 0.196282
0 0.5 -0.3 0.187408
0 0.5 0.3 0.187347
0 0.5 0.306179 0.187142
0 0.5 -0.306179 0.187203
0.0124865 0.5 -0.306179 0.187203
0.0124865 0.5 0.306179 0.187142
0.288069 0.5 -0.15 0.195241
0.288069 0.5 0.15 0.195209
0.151149 0.5 -0.3 0.187725
0.151149 0.5 0.3 0.187664
0.219992 0.5 -0.2625 0.189311
0.219992 0.5 0.2625 0.189257
0.075776 0.5 0.3375 0.186103
0.075776 0.5 -0.3375 0.186171
0.350249 0.5 -0.0375 0.199852
0.350249 0.5 0.0375 0.199844
0.288069 0.5 -0.225 0.193489
0.288069 0.5 0.225 0.193441
0.350249 0.5 0.1125 0.199083
0.350249 0.5 -0.1125 0.199107
0 0.5 0.368821 0.184816
0 0.5 -0.368821 0.184889
0.0124865 0.5 -0.368821 0.184889
0.0124865 0.5 0.368821 0.184816
0 0.5 -0.375 0.184635
0 0.5 0.375 0.184561
0 0.5 -0.381179 0.184385
0 0.5 0.381179 0.184309
0.0124865 0.5 -0.381179 0.184385
0.0124865 0.5 0.381179 0.184309
0.350249 0.5 -0.1875 0.19761
0.350249 0.5 0.1875 0.197569
0.219992 0.5 -0.3375 0.186747
0.219992 0.5 0.3375 0.186679
0.151149 0.5 -0.375 0.184915
0.151149 0.5 0.375 0.18484
0.411736 0.5 -0.00137318 0.204339
0.288069 0.5 -0.3 0.191081
0.288069 0.5 0.3 0.191019
0.411736 0.5 -0.075 0.203977
0.411736 0.5 0.075 0.20396
0.075776 0.5 -0.4125 0.183121
0.075776 0.5 0.4125 0.18304
0.350249 0.5 -0.2625 0.195403
0.350249 0.5 0.2625 0.195346
0.411736 0.5 -0.15 0.202778
0.411736 0.5 0.15 0.202744
0 0.5 -0.443821 0.181627
0 0.5 0.443821 0.18154
0.0124865 0.5 -0.443821 0.181627
0.0124865 0.5 0.443821 0.18154
0 0.5 -0.45 0.181331
0 0.5 0.45 0.181243
0 0.5 -0.456179 0.181039
0 0.5 0.456179 0.180949
0.0124865 0.5 -0.456179 0.181039
0.0124865 0.5 0.456179 0.180949
0.219992 0.5 -0.4125 0.183621
0.219993 0.5 0.4125 0.183539
0.411736 0.5 -0.225 0.200797
0.411736 0.5 0.225 0.200747
0.467897 0.5 0.0375 0.208647
0.467897 0.5 -0.0375 0.208656
0.288069 0.5 -0.375 0.188056
0.288069 0.5 0.375 0.187979
0.151149 0.5 -0.45 0.181569
0.151149 0.5 0.45 0.18148
0.467897 0.5 -0.1125 0.207804
0.467897 0.5 0.1125 0.207778
0.350249 0.5 0.3375 0.192449
0.350249 0.5 -0.3375 0.192521
0.075776 0.5 -0.4875 0.179562
0.075776 0.5 0.4875 0.179467
0.467897 0.5 -0.1875 0.206108
0.467897 0.5 0.1875 0.206064
0.411736 0.5 -0.3 0.198075
0.411736 0.5 0.3 0.198008
0 0.5 -0.518821 0.177875
0 0.5 0.518821 0.177775
0.0124865 0.5 0.518821 0.177775
0.0124865 0.5 -0.518821 0.177875
0.523432 0.5 -0.00137318 0.213968
0 0.5 -0.525 0.177541
0 0.5 0.525 0.17744
0.523432 0.5 -0.075 0.213554
0.523432 0.5 0.075 0.213536
0 0.5 -0.531179 0.177211
0 0.5 0.531179 0.177108
0.0124865 0.5 -0.531179 0.177211
0.0124865 0.5 0.531179 0.177108
0.288069 0.5 -0.45 0.18446
0.288069 0.5 0.45 0.184368
0.219992 0.5 -0.4875 0.179976
0.219993 0.5 0.4875 0.17988
0.467897 0.5 -0.2625 0.203603
0.467897 0.5 0.2625 0.203542
0.350249 0.5 -0.4125 0.189013
0.350249 0.5 0.4125 0.188925
0.523432 0.5 -0.15 0.212185
0.523432 0.5 0.15 0.212149
0.151149 0.5 -0.525 0.177733
0.151149 0.5 0.525 0.177631
0.411736 0.5 -0.375 0.194658
0.411736 0.5 0.375 0.194576
0.075776 0.5 -0.5625 0.175541
0.075776 0.5 0.5625 0.175433
0.523432 0.5 -0.225 0.209929
0.523432 0.5 0.225 0.209875
0.574156 0.5 -0.0375 0.219094
0.574156 0.5 0.0375 0.219085
0.467897 0.5 0.3375 0.200251
0.467897 0.5 -0.3375 0.200329
0.574156 0.5 -0.1125 0.218119
0.574156 0.5 0.1125 0.21809
0 0.5 -0.593821 0.173684
0 0.5 0.593821 0.173571
0.0124865 0.5 -0.593821 0.173684
0.0124865 0.5 0.593821 0.173571
0.288069 0.5 -0.525 0.180348
0.288069 0.5 0.525 0.180242
0 0.5 -0.6 0.173317
0 0.5 0.6 0.173203
0.350249 0.5 -0.4875 0.184935
0.350249 0.5 0.4875 0.184833
0.523432 0.5 -0.3 0.206829
0.523432 0.5 0.3 0.206757
0.219992 0.5 -0.5625 0.175861
0.219992 0.5 0.5625 0.175752
0.574156 0.5 -0.1875 0.216177
0.574156 0.5 0.1875 0.21613
0 0.5 -0.606179 0.172952
0 0.5 0.606179 0.172837
0.0124865 0.5 -0.606179 0.172952
0.0124865 0.5 0.606179 0.172837
0.411736 0.5 -0.45 0.190606
0.411736 0.5 0.45 0.190509
0.151149 0.5 -0.6 0.173457
0.151149 0.5 0.6 0.173343
0.62168 0.5 2.64545e-17 0.224762
0.467897 0.5 0.4125 0.196257
0.467897 0.5 -0.4125 0.19635
0.624316 0.5 0.0729402 0.224589
0.624316 0.5 -0.075 0.224609
0.574156 0.5 -0.2625 0.213312
0.574157 0.5 0.2625 0.213247
0.075776 0.5 -0.6375 0.171112
0.075776 0.5 0.6375 0.170992
0.624316 0.5 -0.15 0.223039
0.624316 0.5 0.15 0.223
0.523432 0.5 -0.375 0.202942
0.523432 0.5 0.375 0.202853
0.350249 0.5 -0.5625 0.18035
0.350249 0.5 0.5625 0.180235
0.624316 0.5 -0.225 0.220454
0.624316 0.5 0.225 0.220396
0.288069 0.5 0.6 0.175658
0.288069 0.5 -0.6 0.175777
0.574156 0.5 -0.3375 0.209576
0.574156 0.5 0.3375 0.209494
0.411736 0.5 -0.525 0.185986
0.411736 0.5 0.525 0.185873
0 0.5 -0.668821 0.169107
0 0.5 0.668821 0.168982
0.0124865 0.5 -0.668821 0.169107
0.0124865 0.5 0.668821 0.168982
0.67013 0.5 0.0375 0.230878
0.67013 0.5 -0.0375 0.230888
0.219993 0.5 -0.6375 0.171331
0.219993 0.5 0.6375 0.17121
0 0.5 -0.675 0.16871
0 0.5 0.675 0.168584
0.467897 0.5 0.4875 0.191628
0.467897 0.5 -0.4875 0.191736
0.67013 0.5 -0.1125 0.229767
0.67013 0.5 0.1125 0.229737
0 0.5 -0.681179 0.168316
0 0.5 0.681179 0.168189
0.0124865 0.5 -0.681179 0.168316
0.0124865 0.5 0.681179 0.168189
0.523432 0.5 -0.45 0.198341
0.523432 0.5 0.45 0.198236
0.151149 0.5 -0.675 0.168798
0.151149 0.5 0.675 0.168671
0.624316 0.5 -0.3 0.216906
0.624316 0.5 0.3 0.216829
0.67013 0.5 0.1875 0.227487
0.67013 0.5 -0.1875 0.227537
0.574156 0.5 -0.4125 0.205043
0.574157 0.5 0.4125 0.204943
0.708171 0.5 1.88651e-17 0.236326
0.075776 0.5 -0.7125 0.166328
0.075776 0.5 0.7125 0.166196
0.715434 0.5 0.0736268 0.236604
0.715434 0.5 -0.075 0.236786
0.67013 0.5 0.2625 0.224181
0.67013 0.5 -0.2625 0.224251
0.350249 0.5 -0.6375 0.175325
0.350249 0.5 0.6375 0.175196
0.411736 0.5 -0.6 0.180868
0.411736 0.5 0.6 0.180741
0.624316 0.5 -0.375 0.212465
0.624316 0.5 0.375 0.21237
0.715434 0.5 -0.15 0.234984
0.715434 0.5 0.15 0.234942
0.467897 0.5 -0.5625 0.186563
0.467897 0.5 0.5625 0.186439
0.288069 0.5 -0.675 0.170808
0.288069 0.5 0.675 0.170677
0.523432 0.5 -0.525 0.193108
0.523432 0.5 0.525 0.192988
0 0.5 -0.743821 0.164198
0 0.5 0.743821 0.164062
0.0124865 0.5 -0.743821 0.164198
0.0124865 0.5 0.743821 0.164062
0.219992 0.5 0.7125 0.166308
0.219992 0.5 -0.7125 0.166441
0.715434 0.5 -0.225 0.232017
0.715434 0.5 0.225 0.231955
0 0.5 -0.75 0.163777
0 0.5 0.75 0.16364
0.67013 0.5 0.3375 0.219881
0.67013 0.5 -0.3375 0.21997
0.574156 0.5 -0.4875 0.199798
0.574156 0.5 0.4875 0.199682
0 0.5 -0.756179 0.163358
0 0.5 0.756179 0.16322
0.0124865 0.5 -0.756179 0.163358
0.0124865 0.5 0.756179 0.16322
0.756813 0.5 -0.0375 0.243611
0.756813 0.5 0.0375 0.2436
0.151149 0.5 -0.75 0.163808
0.151149 0.5 0.75 0.163671
0.756813 0.5 -0.1125 0.242323
0.756813 0.5 0.1125 0.24229
0.624316 0.5 -0.45 0.207221
0.624316 0.5 0.45 0.207109
0.715434 0.5 -0.3 0.227953
0.715434 0.5 0.3 0.227871
0.756813 0.5 0.1875 0.239709
0.756813 0.5 -0.1875 0.239764
0.67013 0.5 -0.4125 0.214786
0.67013 0.5 0.4125 0.214678
0.411736 0.5 -0.675 0.175327
0.411736 0.5 0.675 0.175188
0.467897 0.5 0.6375 0.180773
0.467897 0.5 -0.6375 0.18091
0.075776 0.5 -0.7875 0.161244
0.075776 0.5 0.7875 0.161102
0.350249 0.5 -0.7125 0.169926
0.350249 0.5 0.7125 0.169786
0.523432 0.5 -0.6 0.187331
0.523432 0.5 0.6 0.187196
0.797732 0.5 2.68882e-17 0.250353
0.756813 0.5 -0.2625 0.235991
0.756814 0.5 0.2625 0.235915
0.797732 0.5 0.0736268 0.249549
0.797732 0.5 -0.075 0.249669
0.288069 0.5 -0.75 0.165504
0.288069 0.5 0.75 0.165362
0.574156 0.5 -0.5625 0.193935
0.574157 0.5 0.5625 0.193803
0.715434 0.5 -0.375 0.222881
0.715434 0.5 0.375 0.222778
0.797732 0.5 -0.15 0.247607
0.797732 0.5 0.15 0.247562
0.624316 0.5 -0.525 0.201276
0.624316 0.5 0.525 0.201147
0.219992 0.5 -0.7875 0.161248
0.219992 0.5 0.7875 0.161104
0 0.5 -0.818821 0.159013
0 0.5 0.818821 0.158867
0.0124865 0.5 0.818821 0.158867
0.0124865 0.5 -0.818821 0.159013
0 0.5 -0.825 0.158571
0 0.5 0.825 0.158424
0.756813 0.5 0.3375 0.231005
0.756814 0.5 -0.3375 0.231101
0.67013 0.5 -0.4875 0.208809
0.67013 0.5 0.4875 0.208684
0.797732 0.5 -0.225 0.244216
0.797732 0.5 0.225 0.244149
0 0.5 -0.831179 0.158133
0 0.5 0.831179 0.157985
0.0124865 0.5 -0.831179 0.158133
0.0124865 0.5 0.831179 0.157985
0.835106 0.5 0.0375 0.256835
0.835106 0.5 -0.0375 0.256846
0.151149 0.5 -0.825 0.158546
0.151149 0.5 0.825 0.158398
0.835106 0.5 0.1125 0.255341
0.835106 0.5 -0.1125 0.255376
0.715434 0.5 -0.45 0.216902
0.715434 0.5 0.45 0.216781
0.797732 0.5 -0.3 0.239579
0.797732 0.5 0.3 0.23949
0.467897 0.5 0.7125 0.174712
0.467897 0.5 -0.7125 0.174862
0.523432 0.5 -0.675 0.181101
0.523432 0.5 0.675 0.180952
0.411736 0.5 -0.75 0.169441
0.411736 0.5 0.75 0.16929
0.835106 0.5 -0.1875 0.25246
0.835106 0.5 0.1875 0.252401
0.574156 0.5 -0.6375 0.187554
0.574157 0.5 0.6375 0.187407
0.350249 0.5 -0.7875 0.164224
0.350249 0.5 0.7875 0.164072
0.756813 0.5 -0.4125 0.225195
0.756814 0.5 0.4125 0.225079
0.075776 0.5 -0.8625 0.155917
0.075776 0.5 0.8625 0.155764
0.624316 0.5 0.6 0.19459
0.624316 0.5 -0.6 0.194735
0.872064 0.5 5.91974e-17 0.263746
0.870122 0.5 0.075 0.262458
0.288069 0.5 -0.825 0.159928
0.288069 0.5 0.825 0.159775
0.67013 0.5 -0.5625 0.20215
0.67013 0.5 0.5625 0.202007
0.872064 0.5 -0.075 0.262967
0.835106 0.5 -0.2625 0.248163
0.835106 0.5 0.2625 0.248081
0.797732 0.5 -0.375 0.233804
0.797732 0.5 0.375 0.233694
0.872064 0.5 0.14794 0.260575
0.872064 0.5 -0.15 0.260624
0.715434 0.5 -0.525 0.210142
0.715434 0.5 0.525 0.210003
0.219992 0.5 0.8625 0.155655
0.219993 0.5 -0.8625 0.155809
0 0.5 -0.893821 0.153605
0 0.5 0.893821 0.153449
0.0124865 0.5 -0.893821 0.153605
0.0124865 0.5 0.893821 0.153449
0 0.5 -0.9 0.153148
0 0.5 0.9 0.152991
0.756813 0.5 -0.4875 0.218385
0.756813 0.5 0.4875 0.21825
0.872064 0.5 -0.225 0.256773
0.872064 0.5 0.225 0.2567
0.835106 0.5 -0.3375 0.242599
0.835106 0.5 0.3375 0.242496
0 0.5 0.906179 0.152535
0 0.5 -0.906179 0.152693
0.0124865 0.5 -0.906179 0.152693
0.0124865 0.5 0.906179 0.152535
0.90582 0.5 -0.0375 0.270421
0.90582 0.5 0.0375 0.270409
0.151149 0.5 -0.9 0.153065
0.151149 0.5 0.9 0.152907
0.90582 0.5 -0.1125 0.268754
0.905821 0.5 0.1125 0.268716
0.523432 0.5 -0.75 0.174511
0.523432 0.5 0.75 0.174349
0.574156 0.5 -0.7125 0.180756
0.574156 0.5 0.7125 0.180595
0.797732 0.5 -0.45 0.227011
0.797732 0.5 0.45 0.22688
0.467897 0.5 0.7875 0.168341
0.467897 0.5 -0.7875 0.168503
0.624316 0.5 -0.675 0.18771
0.624316 0.5 0.675 0.18755
0.411736 0.5 -0.825 0.163283
0.411736 0.5 0.825 0.163121
0.872064 0.5 0.3 0.251412
0.872064 0.5 -0.3 0.251508
0.67013 0.5 -0.6375 0.19493
0.67013 0.5 0.6375 0.194772
0.90582 0.5 0.1875 0.265384
0.905821 0.5 -0.1875 0.265447
0.350249 0.5 -0.8625 0.158284
0.350249 0.5 0.8625 0.158122
0.835106 0.5 -0.4125 0.235889
0.835106 0.5 0.4125 0.235764
0.715434 0.5 -0.6 0.202734
0.715434 0.5 0.6 0.202578
0.939201 0.5 2.75387e-17 0.277158
0.075776 0.5 0.9375 0.150235
0.075776 0.5 -0.9375 0.150397
0.939111 0.5 0.075 0.276103
0.939201 0.5 -0.075 0.27628
0.756813 0.5 0.5625 0.210677
0.756814 0.5 -0.5625 0.21083
0.90582 0.5 0.2625 0.260494
0.905821 0.5 -0.2625 0.260582
0.288069 0.5 -0.9 0.154139
0.288069 0.5 0.9 0.153977
0.872064 0.5 -0.375 0.244963
0.872064 0.5 0.375 0.244844
0.939201 0.5 0.148627 0.27349
0.939201 0.5 -0.15 0.273641
0.797732 0.5 -0.525 0.219352
0.797732 0.5 0.525 0.219203
0.219992 0.5 0.9375 0.150015
0.219992 0.5 -0.9375 0.150178
0.939201 0.5 -0.225 0.269307
0.939201 0.5 0.225 0.269228
0.905821 0.5 -0.3375 0.254274
0.90582 0.5 0.3375 0.254163
0.835106 0.5 -0.4875 0.228177
0.835106 0.5 0.4875 0.228032
0 0.5 0.968821 0.147862
0 0.5 -0.968821 0.148027
0.0124865 0.5 -0.968821 0.148027
0.0124865 0.5 0.968821 0.147862
0.969689 0.5 -0.0375 0.283708
0.969689 0.5 0.0375 0.283695
0.574156 0.5 -0.7875 0.173643
0.574156 0.5 0.7875 0.173469
0 0.5 -0.975 0.147557
0 0.5 0.975 0.147392
0.624316 0.5 -0.75 0.180314
0.624316 0.5 0.75 0.180141
0.969689 0.5 -0.1125 0.28184
0.96969 0.5 0.1125 0.281799
0.523432 0.5 -0.825 0.167652
0.523432 0.5 0.825 0.167479
0.67013 0.5 0.7125 0.1871
0.67013 0.5 -0.7125 0.187272
0 0.5 -0.981179 0.147091
0 0.5 0.981179 0.146925
0.467897 0.5 0.8625 0.161739
0.467897 0.5 -0.8625 0.161912
0.0124865 0.5 -0.981179 0.147091
0.0124865 0.5 0.981179 0.146925
0.872064 0.5 -0.45 0.237288
0.872064 0.5 0.45 0.237147
0.715434 0.5 -0.675 0.194811
0.715434 0.5 0.675 0.19464
0.939201 0.5 -0.3 0.263384
0.939201 0.5 0.3 0.263281
0.151149 0.5 0.975 0.147252
0.151149 0.5 -0.975 0.147418
0.969689 0.5 -0.1875 0.278135
0.969689 0.5 0.1875 0.278067
0.756813 0.5 -0.6375 0.202673
0.756813 0.5 0.6375 0.202503
0.411736 0.5 -0.9 0.156927
0.411736 0.5 0.9 0.156754
0.90582 0.5 -0.4125 0.246702
0.90582 0.5 0.4125 0.246568
0.995005 0.5 0.0749309 0.287885
0.797732 0.5 -0.6 0.210994
0.797732 0.5 0.6 0.210826
1.00005 0.5 -8.47123e-18 0.290197
0.350249 0.5 -0.9375 0.152171
0.350249 0.5 0.9375 0.152
1.00005 0.5 -0.0749309 0.289209
0.969689 0.5 -0.2625 0.272692
0.969689 0.5 0.2625 0.272597
0.835106 0.5 -0.5625 0.219658
0.835106 0.5 0.5625 0.219493
1.00005 0.5 -0.149862 0.286246
0.939201 0.5 -0.375 0.256028
0.939201 0.5 0.375 0.255901
1.00029 0.5 0.148988 0.286016
0.075776 0.5 -1.0125 0.144735
0.075776 0.5 1.0125 0.144565
0.288069 0.5 0.975 0.148028
0.288069 0.5 -0.975 0.148199
0.872064 0.5 -0.525 0.228662
0.872064 0.5 0.525 0.228501
1.00005 0.5 0.224793 0.28132
1.00005 0.5 -0.224793 0.281386
0.969689 0.5 0.3375 0.265519
0.96969 0.5 -0.3375 0.265639
1.0271 0.5 -0.0368226 0.296815
1.0271 0.5 0.0368226 0.296801
0.90582 0.5 0.4875 0.237875
0.905821 0.5 -0.4875 0.238031
1.0271 0.5 -0.110468 0.294764
1.0271 0.5 0.110468 0.294755
0.67013 0.5 0.7875 0.179115
0.67013 0.5 -0.7875 0.1793
0.624316 0.5 0.825 0.172471
0.624316 0.5 -0.825 0.172656
0.219993 0.5 -1.0125 0.14441
0.219993 0.5 1.0125 0.144239
0.574156 0.5 -0.8625 0.166311
0.574156 0.5 0.8625 0.166126
0.715434 0.5 -0.75 0.18651
0.715434 0.5 0.75 0.186324
0.756813 0.5 0.7125 0.193875
0.756814 0.5 -0.7125 0.19406
0.523432 0.5 -0.9 0.16061
0.523432 0.5 0.9 0.160426
0.939201 0.5 -0.45 0.247422
0.939201 0.5 0.45 0.247271
1.04168 0.5 0 0.300713
1.0271 0.5 -0.184113 0.290695
1.0271 0.5 0.184113 0.290623
0 0.5 -1.04382 0.142328
0 0.5 1.04382 0.142155
0.0124865 0.5 -1.04382 0.142328
0.0124865 0.5 1.04382 0.142155
1.00005 0.5 -0.299723 0.274754
1.00005 0.5 0.299723 0.274666
1.04168 0.5 -0.0729162 0.299689
1.04168 0.5 0.0729162 0.29966
0.797732 0.5 -0.675 0.202092
0.797732 0.5 0.675 0.201907
0.467897 0.5 0.9375 0.154984
0.467897 0.5 -0.9375 0.155166
0 0.5 -1.05 0.141851
0 0.5 1.05 0.141678
0.835106 0.5 -0.6375 0.210495
0.835106 0.5 0.6375 0.210312
1.04168 0.5 -0.145832 0.296611
1.04168 0.5 0.145832 0.296553
0.969689 0.5 -0.4125 0.257174
0.96969 0.5 0.4125 0.257029
0 0.5 -1.05618 0.141377
0 0.5 1.05618 0.141204
0.0124865 0.5 -1.05618 0.141377
0.0124865 0.5 1.05618 0.141204
1.05695 0.5 -0.0360764 0.30454
1.05695 0.5 0.0360764 0.304535
0.411736 0.5 -0.975 0.15044
0.411736 0.5 0.975 0.150259
0.872064 0.5 -0.6 0.21928
0.872064 0.5 0.6 0.2191
1.0271 0.5 -0.257759 0.284718
1.0271 0.5 0.257759 0.284618
0.151149 0.5 -1.05 0.14166
0.151149 0.5 1.05 0.141486
1.05695 0.5 0.108229 0.30315
1.05695 0.5 -0.108229 0.302464
1.04168 0.5 -0.218749 0.291555
1.04168 0.5 0.218749 0.291469
0.90582 0.5 -0.5625 0.228467
0.905821 0.5 0.5625 0.22829
1.00005 0.5 -0.374654 0.266526
1.00005 0.5 0.374654 0.266417
0.350249 0.5 1.0125 0.14577
0.350249 0.5 -1.0125 0.14595
1.05695 0.5 -0.180382 0.298348
1.05695 0.5 0.180382 0.298318
1.07319 0.5 0.0709442 0.307583
0.939201 0.5 -0.525 0.23778
0.939201 0.5 0.525 0.237607
1.0271 0.5 -0.331404 0.276985
1.0271 0.5 0.331404 0.276857
1.08112 0.5 3.23815e-17 0.311143
1.04168 0.5 -0.291665 0.284652
1.04168 0.5 0.291665 0.284537
1.08112 0.5 -0.0709442 0.310104
0.969689 0.5 -0.4875 0.24749
0.96969 0.5 0.4875 0.247322
1.05695 0.5 0.252535 0.292257
1.05695 0.5 -0.252535 0.2923
0.288069 0.5 -1.05 0.142165
0.288069 0.5 1.05 0.141986
0.075776 0.5 -1.0875 0.138984
0.075776 0.5 1.0875 0.138807
1.08112 0.5 -0.141888 0.306983
1.08145 0.5 0.140165 0.306599
0.715434 0.5 0.825 0.177763
0.715434 0.5 -0.825 0.177962
0.756813 0.5 0.7875 0.184942
0.756814 0.5 -0.7875 0.185142
0.67013 0.5 -0.8625 0.171129
0.67013 0.5 0.8625 0.170931
0.797732 0.5 -0.75 0.192809
0.797732 0.5 0.75 0.192609
0.624316 0.5 -0.9 0.164839
0.624316 0.5 0.9 0.164642
1.00005 0.5 -0.449585 0.256923
1.00005 0.5 0.449585 0.256792
0.835106 0.5 -0.7125 0.200861
0.835106 0.5 0.7125 0.200662
0.574156 0.5 -0.9375 0.158851
0.574157 0.5 0.9375 0.158656
1.10076 0.5 -0.0349809 0.316586
1.10076 0.5 0.0349809 0.316571
1.08112 0.5 -0.212832 0.301856
1.08112 0.5 0.212832 0.301792
0.872064 0.5 -0.675 0.209325
0.872064 0.5 0.675 0.209127
1.04168 0.5 -0.364581 0.27608
1.04168 0.5 0.364581 0.275938
1.0271 0.5 0.405049 0.267554
1.0271 0.5 -0.405049 0.267708
1.05695 0.5 -0.324688 0.284469
1.05695 0.5 0.324688 0.284412
1.10076 0.5 -0.104943 0.314486
1.10076 0.5 0.104943 0.314441
0.523432 0.5 0.975 0.153271
0.523432 0.5 -0.975 0.153465
0.90582 0.5 0.6375 0.218028
0.905821 0.5 -0.6375 0.218224
0.219992 0.5 1.0875 0.138386
0.219992 0.5 -1.0875 0.138564
1.11376 0.5 3.81639e-17 0.320115
0.939201 0.5 0.6 0.227146
0.939201 0.5 -0.6 0.22734
1.10076 0.5 -0.174905 0.310312
1.10076 0.5 0.174905 0.310238
0.467897 0.5 -1.0125 0.148336
0.467897 0.5 1.0125 0.148145
1.11376 0.5 -0.0693118 0.319064
1.11376 0.5 0.0693118 0.319034
1.08112 0.5 0.283777 0.29476
1.08112 0.5 -0.283777 0.294845
0 0.5 -1.11882 0.13656
0 0.5 1.11882 0.13638
0.0124865 0.5 -1.11882 0.13656
0.0124865 0.5 1.11882 0.13638
0.969689 0.5 -0.5625 0.236874
0.969689 0.5 0.5625 0.236684
1.11376 0.5 0.138624 0.315496
1.11376 0.5 -0.138624 0.315901
0 0.5 -1.125 0.13608
0 0.5 1.125 0.1359
1.10076 0.5 0.244866 0.304063
1.10076 0.5 -0.244866 0.304167
0.411736 0.5 -1.05 0.143889
0.411736 0.5 1.05 0.143699
1.05695 0.5 -0.396841 0.275062
1.05695 0.5 0.396841 0.274991
1.00005 0.5 -0.524516 0.2462
1.00005 0.5 0.524516 0.246049
1.04168 0.5 -0.437497 0.26607
1.04168 0.5 0.437497 0.265903
0 0.5 -1.13118 0.135603
0 0.5 1.13118 0.135422
0.0124865 0.5 -1.13118 0.135603
0.0124865 0.5 1.13118 0.135422
1.11376 0.5 -0.207935 0.310696
1.11376 0.5 0.207935 0.310606
1.0271 0.5 -0.478694 0.257138
1.0271 0.5 0.478694 0.256959
0.151149 0.5 -1.125 0.13584
0.151149 0.5 1.125 0.135658
1.08112 0.5 -0.354722 0.286125
1.08112 0.5 0.354722 0.286019
1.13882 0.5 -0.0340295 0.327077
1.13882 0.5 0.0340295 0.327066
0.350249 0.5 -1.0875 0.139676
0.350249 0.5 1.0875 0.139488
1.13882 0.5 -0.102088 0.324925
1.13882 0.5 0.102088 0.325151
1.10076 0.5 -0.314829 0.29619
1.10076 0.5 0.314829 0.296058
0.756813 0.5 -0.8625 0.176053
0.756814 0.5 0.8625 0.17584
0.797732 0.5 -0.825 0.183301
0.797732 0.5 0.825 0.183087
1.11376 0.5 -0.277247 0.303571
1.11376 0.5 0.277247 0.303452
0.835106 0.5 0.7875 0.190722
0.835106 0.5 -0.7875 0.190937
0.715434 0.5 -0.9 0.169286
0.715434 0.5 0.9 0.169075
0.872064 0.5 -0.75 0.198995
0.872064 0.5 0.75 0.19878
1.13882 0.5 0.170147 0.320592
1.13882 0.5 -0.170147 0.320649
0.67013 0.5 -0.9375 0.162865
0.67013 0.5 0.9375 0.162656
0.905821 0.5 -0.7125 0.207485
0.905821 0.5 0.7125 0.207271
1.05695 0.5 0.468994 0.264239
1.05695 0.5 -0.468994 0.264326
0.939201 0.5 -0.675 0.216314
0.939201 0.5 0.675 0.216101
0.624316 0.5 0.975 0.156749
0.624316 0.5 -0.975 0.156956
1.04168 0.5 -0.510414 0.254883
1.04168 0.5 0.510414 0.254691
0.969689 0.5 -0.6375 0.22557
0.96969 0.5 0.6375 0.22536
0.288069 0.5 -1.125 0.136085
0.288069 0.5 1.125 0.135899
1.16179 0.5 5.78241e-19 0.334018
1.08112 0.5 0.425666 0.275791
1.08112 0.5 -0.425666 0.275918
1.13882 0.5 -0.238206 0.314348
1.13882 0.5 0.238206 0.314268
1.16179 0.5 0.0669104 0.333895
1.16179 0.5 -0.0669104 0.332924
0.574156 0.5 -1.0125 0.151343
0.574156 0.5 1.0125 0.151139
0.075776 0.5 -1.1625 0.133192
0.075776 0.5 1.1625 0.133008
1.00005 0.5 -0.599447 0.234621
1.00005 0.5 0.599447 0.234451
1.10076 0.5 0.384791 0.28642
1.10076 0.5 -0.384791 0.28658
1.0271 0.5 -0.55234 0.245545
1.0271 0.5 0.55234 0.245343
1.11376 0.5 -0.346559 0.294692
1.11376 0.5 0.346559 0.294545
1.16179 0.5 -0.133821 0.329654
1.16179 0.5 0.133821 0.329722
0.523432 0.5 -1.05 0.146289
0.523432 0.5 1.05 0.146088
1.17463 0.5 -0.0331343 0.337604
1.17463 0.5 0.0331343 0.337588
1.17463 0.5 -0.0994029 0.335407
1.17463 0.5 0.0994029 0.335361
1.16179 0.5 -0.200731 0.324274
1.16179 0.5 0.200731 0.324246
1.13882 0.5 -0.306265 0.306161
1.13882 0.5 0.306265 0.306058
0.219992 0.5 -1.1625 0.132675
0.219992 0.5 1.1625 0.13249
0.467897 0.5 -1.0875 0.141489
0.467897 0.5 1.0875 0.141291
1.17463 0.5 0.165672 0.330959
1.17463 0.5 -0.165672 0.331037
1.05695 0.5 -0.541147 0.25253
1.05695 0.5 0.541147 0.252427
1.18772 0.5 -5.78241e-19 0.341613
1.11376 0.5 -0.41587 0.284279
1.11376 0.5 0.41587 0.284105
1.18772 0.5 -0.065614 0.340515
1.18772 0.5 0.065614 0.340336
1.08112 0.5 -0.49661 0.264479
1.08112 0.5 0.49661 0.264331
1.10076 0.5 -0.454752 0.275573
1.10076 0.5 0.454752 0.275387
1.18534 0.5 0.118202 0.337146
1.16179 0.5 -0.267642 0.316901
1.16179 0.5 0.267642 0.316862
0 0.5 -1.19382 0.130769
0 0.5 1.19382 0.130583
0.0124865 0.5 1.19382 0.130583
0.0124865 0.5 -1.19382 0.130769
1.04168 0.5 -0.58333 0.24278
1.04168 0.5 0.58333 0.242565
1.18772 0.5 -0.131228 0.337209
1.17463 0.5 -0.23194 0.324587
1.17463 0.5 0.23194 0.324479
0.411736 0.5 -1.125 0.137328
0.411736 0.5 1.125 0.137132
1.13882 0.5 -0.374324 0.296283
1.13882 0.5 0.374324 0.296156
0 0.5 -1.2 0.13029
0 0.5 1.2 0.130104
0.905821 0.5 0.7875 0.196268
0.905821 0.5 -0.7875 0.196499
0.872064 0.5 -0.825 0.188477
0.872064 0.5 0.825 0.188248
0.835106 0.5 0.8625 0.180651
0.835106 0.5 -0.8625 0.180879
0.939201 0.5 -0.75 0.204916
0.939201 0.5 0.75 0.204686
0.797732 0.5 -0.9 0.173708
0.797732 0.5 0.9 0.173482
1.0271 0.5 0.625985 0.232953
1.0271 0.5 -0.625985 0.233177
0.969689 0.5 0.7125 0.213555
0.96969 0.5 -0.7125 0.213784
1.18772 0.5 -0.196842 0.331758
1.18772 0.5 0.196842 0.331665
0.756814 0.5 -0.9375 0.166916
0.756814 0.5 0.9375 0.166692
0 0.5 1.20618 0.129626
0 0.5 -1.20618 0.129813
1.00005 0.5 -0.674378 0.22245
1.00005 0.5 0.674378 0.222261
0.0124865 0.5 1.20618 0.129626
0.0124865 0.5 -1.20618 0.129813
1.16179 0.5 -0.334552 0.307699
1.16179 0.5 0.334552 0.307648
0.715434 0.5 0.975 0.160369
0.715434 0.5 -0.975 0.160591
0.151149 0.5 -1.2 0.129997
0.151149 0.5 1.2 0.12981
1.20942 0.5 0.0322645 0.348544
1.20942 0.5 -0.0322645 0.348465
1.17463 0.5 -0.298209 0.316193
1.17463 0.5 0.298209 0.316055
1.20942 0.5 -0.0967935 0.346229
1.20942 0.5 0.0967935 0.346184
0.350249 0.5 -1.1625 0.133392
0.350249 0.5 1.1625 0.133197
0.67013 0.5 1.0125 0.154385
0.67013 0.5 -1.0125 0.154603
1.11376 0.5 0.485183 0.272381
1.11376 0.5 -0.485183 0.272581
1.18772 0.5 0.262456 0.324154
1.18772 0.5 -0.262456 0.324277
1.10076 0.5 -0.524714 0.263437
1.10076 0.5 0.524714 0.263227
1.20942 0.5 -0.161322 0.341777
1.20942 0.5 0.161322 0.341701
1.08112 0.5 -0.567554 0.252083
1.08112 0.5 0.567554 0.251915
0.624316 0.5 -1.05 0.149089
0.624316 0.5 1.05 0.148874
1.13882 0.5 -0.442383 0.28495
1.13882 0.5 0.442383 0.284801
1.05695 0.5 0.6133 0.239808
1.05695 0.5 -0.6133 0.239929
1.16179 0.5 -0.401463 0.296885
1.16179 0.5 0.401463 0.296821
0.574156 0.5 -1.0875 0.143861
0.574156 0.5 1.0875 0.143649
1.17463 0.5 0.364477 0.305878
1.17463 0.5 -0.364477 0.306045
1.20942 0.5 -0.225851 0.335198
1.20942 0.5 0.225851 0.335093
1.23036 0.5 -1.32995e-17 0.355464
1.2294 0.5 0.0634819 0.353848
1.04168 0.5 -0.656246 0.230035
1.04168 0.5 0.656246 0.229799
1.23036 0.5 -0.0634819 0.354319
1.18772 0.5 0.32807 0.314772
1.18772 0.5 -0.32807 0.314926
0.288069 0.5 -1.2 0.13
0.288069 0.5 1.2 0.129807
1.23036 0.5 -0.126964 0.350915
1.23036 0.5 0.126964 0.350947
0.075776 0.5 -1.2375 0.127402
0.075776 0.5 1.2375 0.127213
0.523432 0.5 -1.125 0.13915
0.523432 0.5 1.125 0.138941
1.0271 0.5 -0.69963 0.220356
1.0271 0.5 0.69963 0.220112
1.24274 0.5 0.0314313 0.35942
1.24274 0.5 -0.0314313 0.359436
1.20942 0.5 0.29038 0.326487
1.20942 0.5 -0.29038 0.326622
1.11376 0.5 -0.554494 0.259891
1.11376 0.5 0.554494 0.259667
1.23036 0.5 -0.190445 0.345313
1.23036 0.5 0.190445 0.345359
1.24274 0.5 -0.0942942 0.357165
1.24274 0.5 0.0942942 0.357117
1.13882 0.5 0.510442 0.272256
1.13882 0.5 -0.510442 0.272426
0.969689 0.5 -0.7875 0.201741
0.969689 0.5 0.7875 0.201495
1.00005 0.5 -0.749309 0.209943
1.00005 0.5 0.749309 0.209736
0.939201 0.5 -0.825 0.193367
0.939201 0.5 0.825 0.193122
0.90582 0.5 0.8625 0.18519
0.90582 0.5 -0.8625 0.185434
1.17463 0.5 -0.430746 0.294387
1.17463 0.5 0.430746 0.294192
1.10076 0.5 -0.594676 0.250478
1.10076 0.5 0.594676 0.250244
1.18772 0.5 -0.393684 0.303919
1.18772 0.5 0.393684 0.303736
1.24274 0.5 -0.157157 0.352637
1.24274 0.5 0.157157 0.352557
1.16179 0.5 -0.468373 0.28471
1.16179 0.5 0.468373 0.284631
0.467897 0.5 -1.1625 0.134686
0.467897 0.5 1.1625 0.134481
0.872064 0.5 -0.9 0.177926
0.872064 0.5 0.9 0.177684
1.25401 0.5 2.08167e-17 0.362965
0.835106 0.5 0.9375 0.170589
0.835106 0.5 -0.9375 0.170829
1.25401 0.5 -0.0622994 0.361819
1.25401 0.5 0.0622994 0.361778
1.08112 0.5 -0.638498 0.239
1.08112 0.5 0.638498 0.238812
1.23036 0.5 -0.253927 0.337618
1.23036 0.5 0.253927 0.337675
0.219992 0.5 1.2375 0.12659
0.219992 0.5 -1.2375 0.126781
1.25309 0.5 0.121964 0.358377
1.05695 0.5 0.685452 0.226674
1.05695 0.5 -0.685452 0.226812
0.797732 0.5 0.975 0.163917
0.797732 0.5 -0.975 0.164153
1.25401 0.5 -0.124599 0.358389
1.20942 0.5 -0.354909 0.316232
1.20942 0.5 0.354909 0.316068
1.24274 0.5 -0.220019 0.345936
1.24274 0.5 0.220019 0.345825
0.756814 0.5 -1.0125 0.157835
0.756813 0.5 1.0125 0.157601
1.25401 0.5 -0.186898 0.352732
1.25401 0.5 0.186898 0.352712
0.411736 0.5 -1.2 0.130808
0.411736 0.5 1.2 0.130606
0 0.5 -1.26882 0.124995
0 0.5 1.26882 0.124804
0.0124865 0.5 1.26882 0.124804
0.0124865 0.5 -1.26882 0.124995
0.715434 0.5 -1.05 0.151969
0.715434 0.5 1.05 0.151739
1.23036 0.5 -0.31741 0.327982
1.23036 0.5 0.31741 0.328047
1.04168 0.5 -0.729162 0.216955
1.04168 0.5 0.729162 0.216701
1.18772 0.5 -0.459298 0.291508
1.18772 0.5 0.459298 0.291298
1.24274 0.5 -0.282882 0.337186
1.24274 0.5 0.282882 0.337044
0 0.5 -1.275 0.124519
0 0.5 1.275 0.124328
1.27472 0.5 -0.0306319 0.370423
1.27472 0.5 0.0306319 0.370411
1.17463 0.5 0.497015 0.281255
1.17463 0.5 -0.497015 0.281477
1.11376 0.5 -0.623806 0.246492
1.11376 0.5 0.623806 0.246244
1.13882 0.5 -0.578501 0.259046
1.13882 0.5 0.578501 0.258854
0.67013 0.5 -1.0875 0.146423
0.67013 0.5 1.0875 0.146197
1.27472 0.5 -0.0918959 0.368114
1.27472 0.5 0.0918959 0.366517
1.25401 0.5 -0.249197 0.344948
1.25401 0.5 0.249197 0.34492
1.16179 0.5 -0.535284 0.271475
1.16179 0.5 0.535284 0.27138
1.20942 0.5 -0.419438 0.304271
1.20942 0.5 0.419438 0.304079
0 0.5 -1.28118 0.124045
0 0.5 1.28118 0.123853
0.0124865 0.5 1.28118 0.123853
0.0124865 0.5 -1.28118 0.124045
1.27472 0.5 0.15316 0.363455
1.27472 0.5 -0.15316 0.363514
0.151149 0.5 -1.275 0.124175
0.151149 0.5 1.275 0.123982
1.0271 0.5 0.773275 0.207075
1.0271 0.5 -0.773275 0.207335
1.10076 0.5 0.664638 0.23668
1.10076 0.5 -0.664638 0.236936
0.350249 0.5 -1.2375 0.12714
0.350249 0.5 1.2375 0.126939
0.624316 0.5 -1.125 0.141308
0.624316 0.5 1.125 0.141086
1.23036 0.5 0.380892 0.316684
1.23036 0.5 -0.380892 0.316614
1.24274 0.5 -0.345745 0.326559
1.24274 0.5 0.345745 0.326386
1.2906 0.5 0 0.37617
1.2906 0.5 -0.0604698 0.375017
1.2906 0.5 0.0604698 0.374985
1.25401 0.5 -0.311497 0.335183
1.25401 0.5 0.311497 0.335144
1.27472 0.5 -0.214423 0.356698
1.27472 0.5 0.214423 0.356615
1.08112 0.5 0.709442 0.225326
1.08112 0.5 -0.709442 0.225532
1.00005 0.5 -0.824239 0.197339
1.00005 0.5 0.824239 0.197116
1.2906 0.5 -0.12094 0.37154
1.2906 0.5 0.12094 0.371475
0.574156 0.5 -1.1625 0.136469
0.574156 0.5 1.1625 0.136251
0.969689 0.5 -0.8625 0.189671
0.96969 0.5 0.8625 0.18941
1.18772 0.5 0.524912 0.277756
1.18772 0.5 -0.524912 0.277993
1.05695 0.5 -0.757605 0.213505
1.05695 0.5 0.757605 0.21335
0.939201 0.5 -0.9 0.181848
0.939201 0.5 0.9 0.181589
1.30091 0.5 -0.0299772 0.379831
1.30091 0.5 0.0299772 0.379815
1.20942 0.5 -0.483967 0.290999
1.20942 0.5 0.483967 0.290779
1.17463 0.5 -0.563284 0.267659
1.17463 0.5 0.563284 0.267413
1.2906 0.5 -0.181409 0.365788
1.2906 0.5 0.181409 0.36569
0.90582 0.5 0.9375 0.174183
0.90582 0.5 -0.9375 0.17444
1.30091 0.5 -0.0899316 0.377502
1.30091 0.5 0.0899316 0.375684
1.27472 0.5 0.275687 0.347675
1.27472 0.5 -0.275687 0.347782
0.288069 0.5 -1.275 0.123952
0.288069 0.5 1.275 0.123753
0.872064 0.5 -0.975 0.167483
0.872064 0.5 0.975 0.16723
1.23036 0.5 -0.444373 0.303765