# pMean  POINT_DATA 63140
# x  y  z  pMean
0 0.1 0 0.221236
0 0.1 -0.0179898 0.221239
0 0.1 0.0179898 0.221236
0.0363518 0.1 0.0179898 0.221236
0.0363518 0.1 -0.0179898 0.221239
0 0.1 -0.0570102 0.221083
0 0.1 0.0570102 0.221072
0.0363518 0.1 0.0570102 0.221072
0.0363518 0.1 -0.0570102 0.221083
0 0.1 -0.075 0.220935
0 0.1 0.075 0.220921
0.075776 0.1 -0.0375 0.221245
0.075776 0.1 0.0375 0.221238
0 0.1 -0.0929898 0.220791
0 0.1 0.0929898 0.220773
0.0363518 0.1 -0.0929898 0.220791
0.0363518 0.1 0.0929898 0.220773
0 0.1 -0.13201 0.220318
0 0.1 0.13201 0.220293
0.075776 0.1 -0.1125 0.220636
0.075776 0.1 0.1125 0.220615
0.0363518 0.1 -0.13201 0.220318
0.0363518 0.1 0.13201 0.220293
0 0.1 -0.15 0.220027
0 0.1 0.15 0.219999
0.150379 0.1 -2.22623e-17 0.213474
0 0.1 -0.16799 0.21974
0 0.1 0.16799 0.219708
0.150379 0.1 -0.075 0.21313
0.150379 0.1 0.075 0.213114
0.0363518 0.1 -0.16799 0.21974
0.0363518 0.1 0.16799 0.219708
0.075776 0.1 -0.1875 0.219429
0.075776 0.1 0.1875 0.219393
0 0.1 -0.20701 0.218931
0 0.1 0.20701 0.218891
0.0363518 0.1 -0.20701 0.218931
0.0363518 0.1 0.20701 0.218891
0.150379 0.1 -0.15 0.212066
0.150379 0.1 0.15 0.212034
0.219993 0.1 -0.0375 0.20607
0.219993 0.1 0.0375 0.206061
0 0.1 -0.225 0.218475
0 0.1 0.225 0.218432
0 0.1 -0.24299 0.218023
0 0.1 0.24299 0.217976
0.0363518 0.1 0.24299 0.217976
0.0363518 0.1 -0.24299 0.218023
0.219993 0.1 -0.1125 0.20529
0.219993 0.1 0.1125 0.205263
0.150379 0.1 -0.225 0.210267
0.150379 0.1 0.225 0.210218
0.075776 0.1 -0.2625 0.217533
0.075776 0.1 0.2625 0.217481
0 0.1 -0.28201 0.216861
0 0.1 0.28201 0.216805
0.0363518 0.1 -0.28201 0.216861
0.0363518 0.1 0.28201 0.216805
0.287374 0.1 -2.89121e-19 0.209475
0.219992 0.1 0.1875 0.203601
0.219992 0.1 -0.1875 0.203646
0.287374 0.1 -0.075 0.209091
0.287374 0.1 0.075 0.209073
0 0.1 -0.3 0.216245
0 0.1 0.3 0.216185
0 0.1 0.31799 0.215568
0 0.1 -0.31799 0.215631
0.0363518 0.1 -0.31799 0.215631
0.0363518 0.1 0.31799 0.215568
0.287374 0.1 0.15 0.207859
0.287374 0.1 -0.15 0.207893
0.150379 0.1 -0.3 0.207774
0.150379 0.1 0.3 0.207709
0.219993 0.1 0.2625 0.201159
0.219993 0.1 -0.2625 0.201221
0.075776 0.1 -0.3375 0.214966
0.075776 0.1 0.3375 0.214899
0.350249 0.1 -0.0375 0.212741
0.350249 0.1 0.0375 0.212733
0 0.1 -0.35701 0.214133
0 0.1 0.35701 0.214062
0.0363518 0.1 -0.35701 0.214133
0.0363518 0.1 0.35701 0.214062
0.287374 0.1 -0.225 0.205891
0.287374 0.1 0.225 0.20584
0.350249 0.1 -0.1125 0.211966
0.350249 0.1 0.1125 0.211941
0 0.1 -0.375 0.213368
0 0.1 0.375 0.213294
0 0.1 -0.39299 0.212605
0 0.1 0.39299 0.212526
0.0363518 0.1 -0.39299 0.212605
0.0363518 0.1 0.39299 0.212526
0.350249 0.1 -0.1875 0.210375
0.350249 0.1 0.1875 0.210333
0.219992 0.1 -0.3375 0.198158
0.219992 0.1 0.3375 0.198082
0.150379 0.1 0.375 0.204575
0.150379 0.1 -0.375 0.204654
0.411108 0.1 4.33681e-19 0.21837
0.287374 0.1 -0.3 0.203158
0.287374 0.1 0.3 0.203091
0.411108 0.1 -0.075 0.217936
0.411108 0.1 0.075 0.217918
0.075776 0.1 -0.4125 0.211779
0.075776 0.1 0.4125 0.211696
0 0.1 0.43201 0.210708
0 0.1 -0.43201 0.210795
0.0363518 0.1 0.43201 0.210708
0.0363518 0.1 -0.43201 0.210795
0.411108 0.1 -0.15 0.216617
0.411108 0.1 0.15 0.216582
0.350249 0.1 -0.2625 0.208022
0.350249 0.1 0.2625 0.207965
0 0.1 -0.45 0.209891
0 0.1 0.45 0.209801
0.219992 0.1 0.4125 0.194428
0.219992 0.1 -0.4125 0.194518
0 0.1 -0.46799 0.208988
0 0.1 0.46799 0.208895
0.411108 0.1 -0.225 0.214439
0.411108 0.1 0.225 0.214386
0.467897 0.1 -0.0375 0.223778
0.467897 0.1 0.0375 0.223768
0.0363518 0.1 0.46799 0.208895
0.0363518 0.1 -0.46799 0.208988
0.287374 0.1 -0.375 0.19976
0.287374 0.1 0.375 0.199677
0.150379 0.1 0.45 0.200869
0.150379 0.1 -0.45 0.200963
0.467897 0.1 0.1125 0.222774
0.467897 0.1 -0.1125 0.222803
0.350249 0.1 -0.3375 0.204931
0.350249 0.1 0.3375 0.204857
0.075776 0.1 -0.4875 0.208011
0.075776 0.1 0.4875 0.207914
0.467897 0.1 0.1875 0.220832
0.467897 0.1 -0.1875 0.220878
0 0.1 -0.50701 0.206889
0 0.1 0.50701 0.206788
0.0363518 0.1 -0.50701 0.206889
0.0363518 0.1 0.50701 0.206788
0.411108 0.1 0.3 0.211376
0.411108 0.1 -0.3 0.211446
0.522865 0.1 1.41031e-17 0.230461
0 0.1 -0.525 0.205859
0 0.1 0.525 0.205754
0.522865 0.1 -0.075 0.229943
0.522865 0.1 0.075 0.229924
0.287374 0.1 0.45 0.195653
0.287374 0.1 -0.45 0.195751
0.219992 0.1 0.4875 0.190262
0.219992 0.1 -0.4875 0.190365
0.467897 0.1 -0.2625 0.218052
0.467897 0.1 0.2625 0.217985
0.350249 0.1 -0.4125 0.201137
0.350249 0.1 0.4125 0.201046
0 0.1 -0.54299 0.204829
0 0.1 0.54299 0.204721
0.522865 0.1 0.15 0.228346
0.522865 0.1 -0.15 0.228385
0.0363518 0.1 0.54299 0.204721
0.0363518 0.1 -0.54299 0.204829
0.150379 0.1 -0.525 0.196761
0.150379 0.1 0.525 0.196654
0.411108 0.1 -0.375 0.207685
0.411108 0.1 0.375 0.207599
0.075776 0.1 -0.5625 0.203714
0.075776 0.1 0.5625 0.203603
0.522865 0.1 -0.225 0.225827
0.522865 0.1 0.225 0.225769
0.574156 0.1 0.0375 0.236887
0.574157 0.1 -0.0375 0.236898
0.467897 0.1 -0.3375 0.214374
0.467897 0.1 0.3375 0.214292
0 0.1 -0.58201 0.202471
0 0.1 0.58201 0.202357
0.0363518 0.1 -0.58201 0.202471
0.0363518 0.1 0.58201 0.202357
0.574157 0.1 -0.1125 0.235784
0.574157 0.1 0.1125 0.235755
0.287374 0.1 -0.525 0.191204
0.287374 0.1 0.525 0.191093
0 0.1 -0.6 0.201329
0 0.1 0.6 0.201211
0.350249 0.1 0.4875 0.19659
0.350249 0.1 -0.4875 0.196694
0.522865 0.1 -0.3 0.222322
0.522865 0.1 0.3 0.222246
0.219992 0.1 -0.5625 0.185792
0.219992 0.1 0.5625 0.185675
0.574156 0.1 -0.1875 0.233574
0.574156 0.1 0.1875 0.233522
0.411108 0.1 0.45 0.203113
0.411108 0.1 -0.45 0.203215
0 0.1 -0.61799 0.200187
0 0.1 0.61799 0.200067
0.150379 0.1 -0.6 0.192104
0.150379 0.1 0.6 0.191984
0.0363518 0.1 -0.61799 0.200187
0.0363518 0.1 0.61799 0.200067
0.467897 0.1 -0.4125 0.209916
0.467897 0.1 0.4125 0.209819
0.623803 0.1 2.34188e-17 0.244499
0.623803 0.1 0.075 0.243882
0.623803 0.1 -0.075 0.243903
0.574156 0.1 0.2625 0.230248
0.574156 0.1 -0.2625 0.230315
0.623803 0.1 0.15 0.242066
0.623803 0.1 -0.15 0.242107
0.075776 0.1 0.6375 0.198828
0.075776 0.1 -0.6375 0.198952
0.522865 0.1 -0.375 0.217942
0.522865 0.1 0.375 0.217848
0 0.1 0.65701 0.197476
0 0.1 -0.65701 0.197604
0.0363518 0.1 0.65701 0.197476
0.0363518 0.1 -0.65701 0.197604
0.350249 0.1 0.5625 0.191573
0.350249 0.1 -0.5625 0.191693
0.623803 0.1 0.225 0.239092
0.623803 0.1 -0.225 0.239154
0.287374 0.1 -0.6 0.18619
0.287374 0.1 0.6 0.186066
0.574157 0.1 -0.3375 0.226079
0.574157 0.1 0.3375 0.225991
0.411108 0.1 0.525 0.197995
0.411108 0.1 -0.525 0.198113
0.67013 0.1 0.0375 0.25183
0.67013 0.1 -0.0375 0.251839
0.219992 0.1 -0.6375 0.180808
0.219993 0.1 0.6375 0.180681
0 0.1 -0.675 0.196365
0 0.1 0.675 0.196234
0.467897 0.1 -0.4875 0.204758
0.467897 0.1 0.4875 0.204644
0.67013 0.1 -0.1125 0.250551
0.67013 0.1 0.1125 0.250519
0.522865 0.1 0.45 0.212657
0.522865 0.1 -0.45 0.212768
0.150379 0.1 0.675 0.186906
0.150379 0.1 -0.675 0.187038
0.623803 0.1 0.3 0.235025
0.623803 0.1 -0.3 0.235107
0 0.1 -0.69299 0.195127
0 0.1 0.69299 0.194993
0.0363518 0.1 -0.69299 0.195127
0.0363518 0.1 0.69299 0.194993
0.67013 0.1 -0.1875 0.247989
0.67013 0.1 0.1875 0.247937
0.574156 0.1 0.4125 0.220846
0.574157 0.1 -0.4125 0.220953
0.714971 0.1 -2.8382e-17 0.26008
0.075776 0.1 -0.7125 0.193786
0.075776 0.1 0.7125 0.193649
0.714971 0.1 -0.075 0.259389
0.714971 0.1 0.075 0.259368
0.67013 0.1 0.2625 0.244148
0.67013 0.1 -0.2625 0.244224
0.411108 0.1 -0.6 0.192465
0.411108 0.1 0.6 0.192333
0.350249 0.1 0.6375 0.186082
0.350249 0.1 -0.6375 0.186216
0.623803 0.1 0.375 0.229949
0.623803 0.1 -0.375 0.230051
0.714971 0.1 -0.15 0.25731
0.714971 0.1 0.15 0.257267
0.467897 0.1 -0.5625 0.198984
0.467897 0.1 0.5625 0.198853
0 0.1 -0.73201 0.19235
0 0.1 0.73201 0.19221
0.0363518 0.1 0.73201 0.19221
0.0363518 0.1 -0.73201 0.19235
0.287374 0.1 -0.675 0.180764
0.287374 0.1 0.675 0.180626
0.522865 0.1 -0.525 0.206894
0.522865 0.1 0.525 0.206766
0.219993 0.1 -0.7125 0.175467
0.219992 0.1 0.7125 0.175326
0.714971 0.1 -0.225 0.253889
0.714971 0.1 0.225 0.253826
0 0.1 0.75 0.190887
0 0.1 -0.75 0.19103
0.67013 0.1 -0.3375 0.239317
0.67013 0.1 0.3375 0.239222
0.574156 0.1 -0.4875 0.215028
0.574157 0.1 0.4875 0.214904
0.756813 0.1 0.0375 0.268051
0.756814 0.1 -0.0375 0.268062
0.150379 0.1 0.746002 0.181907
0.150379 0.1 -0.75 0.181623
0.756813 0.1 -0.1125 0.266567
0.756813 0.1 0.1125 0.266535
0 0.1 0.76799 0.189565
0 0.1 -0.76799 0.18971
0.0363518 0.1 0.76799 0.189565
0.0363518 0.1 -0.76799 0.18971
0.623803 0.1 -0.45 0.224093
0.623803 0.1 0.45 0.223974
0.714971 0.1 -0.3 0.249209
0.714971 0.1 0.3 0.249125
0.756814 0.1 -0.1875 0.263606
0.756814 0.1 0.1875 0.26355
0.67013 0.1 -0.4125 0.233389
0.67013 0.1 0.4125 0.233273
0.411108 0.1 0.675 0.186214
0.411108 0.1 -0.675 0.18636
0.467897 0.1 0.6375 0.192538
0.467897 0.1 -0.6375 0.19268
0.075776 0.1 0.7875 0.188133
0.075776 0.1 -0.7875 0.188281
0.350249 0.1 -0.7125 0.180335
0.350249 0.1 0.7125 0.180188
0.522865 0.1 -0.6 0.200419
0.522865 0.1 0.6 0.200276
0.797314 0.1 -3.59473e-17 0.276705
0.287374 0.1 0.746002 0.175076
0.797314 0.1 -0.075 0.275908
0.797314 0.1 0.075 0.275886
0.756814 0.1 -0.2625 0.259228
0.756814 0.1 0.2625 0.259158
0.287374 0.1 -0.75 0.174991
0.574156 0.1 -0.5625 0.208419
0.574156 0.1 0.5625 0.208279
0 0.1 0.80701 0.186624
0 0.1 -0.80701 0.186775
0.714971 0.1 -0.375 0.243375
0.714971 0.1 0.375 0.243269
0.0363518 0.1 0.80701 0.186624
0.0363518 0.1 -0.80701 0.186775
0.797314 0.1 -0.15 0.273514
0.797314 0.1 0.15 0.273471
0.623803 0.1 -0.525 0.21735
0.623803 0.1 0.525 0.217214
0.219992 0.1 0.7875 0.169677
0.219992 0.1 -0.7875 0.169826
0.149792 0.1 0.80701 0.17719
0 0.1 0.825 0.185235
0 0.1 -0.825 0.185389
0.797314 0.1 -0.225 0.269575
0.797314 0.1 0.225 0.269514
0.756813 0.1 -0.3375 0.253581
0.756813 0.1 0.3375 0.253483
0.67013 0.1 0.4875 0.226437
0.67013 0.1 -0.4875 0.226569
0.835106 0.1 -0.0375 0.2851
0.835106 0.1 0.0375 0.28509
0.150379 0.1 -0.825 0.175922
0.835106 0.1 -0.1125 0.28339
0.835106 0.1 0.1125 0.283355
0 0.1 -0.84299 0.184004
0 0.1 0.84299 0.183847
0.0363518 0.1 -0.84299 0.184004
0.0363518 0.1 0.84299 0.183847
0.714971 0.1 -0.45 0.23651
0.714971 0.1 0.45 0.236384
0.411108 0.1 0.746002 0.179985
0.797314 0.1 -0.3 0.264196
0.797314 0.1 0.3 0.264113
0.467897 0.1 -0.7125 0.185953
0.467897 0.1 0.7125 0.185795
0.522865 0.1 0.675 0.193292
0.522865 0.1 -0.675 0.193449
0.411108 0.1 -0.75 0.179881
0.835106 0.1 -0.1875 0.279989
0.835107 0.1 0.1875 0.27994
0.286844 0.1 0.80701 0.170258
0.574156 0.1 0.6375 0.201084
0.574157 0.1 -0.6375 0.201239
0.350249 0.1 -0.7875 0.174131
0.350249 0.1 0.7875 0.173972
0.756813 0.1 -0.4125 0.246754
0.756814 0.1 0.4125 0.246638
0.623803 0.1 -0.6 0.209945
0.623803 0.1 0.6 0.209793
0.075776 0.1 0.8625 0.182345
0.075776 0.1 -0.8625 0.182504
0.871687 0.1 -3.2767e-18 0.293905
0.287374 0.1 -0.825 0.168941
0.871687 0.1 -0.075 0.292992
0.871687 0.1 0.075 0.29297
0.67013 0.1 -0.5625 0.218983
0.67013 0.1 0.5625 0.218834
0.835106 0.1 0.2625 0.27492
0.835106 0.1 -0.2625 0.27499
0.797314 0.1 -0.375 0.257504
0.797314 0.1 0.375 0.257396
0 0.1 -0.88201 0.180943
0 0.1 0.88201 0.180782
0.0363518 0.1 0.88201 0.180782
0.0363518 0.1 -0.88201 0.180943
0.871687 0.1 0.15 0.29021
0.871687 0.1 -0.15 0.290253
0.714971 0.1 0.525 0.228616
0.714971 0.1 -0.525 0.22876
0.219993 0.1 0.8625 0.163788
0.219992 0.1 -0.8625 0.163949
0 0.1 0.9 0.179344
0 0.1 -0.9 0.179507
0.756813 0.1 0.4875 0.238762
0.756814 0.1 -0.4875 0.238899
0.871687 0.1 0.225 0.285691
0.871687 0.1 -0.225 0.285756
0.835106 0.1 -0.3375 0.268522
0.835106 0.1 0.3375 0.268425
0.41063 0.1 0.80701 0.174594
0.90582 0.1 -0.0375 0.302483
0.905821 0.1 0.0375 0.302474
0.522865 0.1 0.746002 0.186206
0.150379 0.1 0.9 0.169831
0.90582 0.1 0.1125 0.300493
0.905821 0.1 -0.1125 0.300527
0.522865 0.1 -0.75 0.186091
0.574156 0.1 0.7125 0.193436
0.574156 0.1 -0.7125 0.193605
0.797314 0.1 -0.45 0.249639
0.797314 0.1 0.45 0.249509
0.467897 0.1 -0.7875 0.178888
0.467897 0.1 0.7875 0.17872
0.150379 0.1 -0.903998 0.170384
0 0.1 0.91799 0.177906
0 0.1 -0.91799 0.178072
0.0363518 0.1 0.91799 0.177906
0.0363518 0.1 -0.91799 0.178072
0.623803 0.1 0.675 0.201841
0.623803 0.1 -0.675 0.202009
0.411108 0.1 -0.825 0.173115
0.871687 0.1 0.3 0.279526
0.871687 0.1 -0.3 0.279614
0.67013 0.1 -0.6375 0.210775
0.67013 0.1 0.6375 0.210609
0.90582 0.1 -0.1875 0.296647
0.90582 0.1 0.1875 0.296592
0.350249 0.1 0.8625 0.167507
0.350249 0.1 -0.8625 0.167678
0.835106 0.1 -0.4125 0.260722
0.835106 0.1 0.4125 0.260601
0.714971 0.1 -0.6 0.220283
0.714971 0.1 0.6 0.22012
0.93886 0.1 -1.15648e-17 0.311126
0.075776 0.1 0.9375 0.176349
0.075776 0.1 -0.9375 0.176518
0.93886 0.1 0.075 0.310075
0.93886 0.1 -0.075 0.310098
0.756813 0.1 0.5625 0.230039
0.756814 0.1 -0.5625 0.230197
0.905821 0.1 -0.2625 0.290954
0.905821 0.1 0.2625 0.290868
0.287374 0.1 0.9 0.162509
0.287374 0.1 -0.903998 0.163336
0.871687 0.1 0.375 0.271866
0.871687 0.1 -0.375 0.271977
0.93886 0.1 -0.15 0.307017
0.93886 0.1 0.15 0.30697
0.797314 0.1 0.525 0.240634
0.797314 0.1 -0.525 0.240787
0 0.1 0.95701 0.174748
0 0.1 -0.95701 0.174919
0.0363518 0.1 0.95701 0.174748
0.0363518 0.1 -0.95701 0.174919
0.522433 0.1 0.80701 0.180122
0.219992 0.1 0.9375 0.157719
0.219992 0.1 -0.9375 0.157887
0.93886 0.1 0.225 0.301889
0.93886 0.1 -0.225 0.301963
0.90582 0.1 0.3375 0.28347
0.905821 0.1 -0.3375 0.28357
0.835106 0.1 -0.4875 0.251775
0.835107 0.1 0.4875 0.251629
0.969689 0.1 -0.0375 0.319572
0.969689 0.1 0.0375 0.319561
0.61613 0.1 0.75 0.19349
0.574156 0.1 -0.7875 0.185636
0.574156 0.1 0.7875 0.185453
0 0.1 0.975 0.173275
0 0.1 -0.975 0.173447
0.623803 0.1 -0.75 0.193673
0.969689 0.1 -0.1125 0.317401
0.969689 0.1 0.1125 0.317364
0.522865 0.1 -0.825 0.178448
0.67013 0.1 0.7125 0.201908
0.67013 0.1 -0.7125 0.202091
0.871687 0.1 -0.45 0.263027
0.871687 0.1 0.45 0.262891
0.467897 0.1 0.8625 0.171403
0.467897 0.1 -0.8625 0.171582
0.714971 0.1 -0.675 0.211237
0.714971 0.1 0.675 0.211056
0.93886 0.1 -0.3 0.295055
0.93886 0.1 0.3 0.294957
0.150379 0.1 0.975 0.163731
0.150379 0.1 -0.975 0.163903
0.969689 0.1 -0.1875 0.313092
0.969689 0.1 0.1875 0.31303
0.411108 0.1 0.9 0.165964
0.756813 0.1 0.6375 0.220645
0.756814 0.1 -0.6375 0.220822
0.990306 0.1 -2.19732e-17 0.324385
0 0.1 0.99299 0.171802
0 0.1 -0.99299 0.171976
0.411108 0.1 -0.903998 0.166869
0.990306 0.1 -0.075 0.32326
0.990306 0.1 0.075 0.323236
0.0363518 0.1 0.99299 0.171802
0.0363518 0.1 -0.99299 0.171976
0.90582 0.1 -0.4125 0.2747
0.905821 0.1 0.4125 0.274574
0.797314 0.1 -0.6 0.23114
0.797314 0.1 0.6 0.230968
0.350249 0.1 0.9375 0.160869
0.350249 0.1 -0.9375 0.16105
0.990306 0.1 0.15 0.319837
0.990306 0.1 -0.15 0.319887
0.969689 0.1 -0.2625 0.306769
0.969689 0.1 0.2625 0.306676
0.835106 0.1 -0.5625 0.241903
0.835106 0.1 0.5625 0.241736
0.93886 0.1 -0.375 0.286468
0.93886 0.1 0.375 0.286349
0.075776 0.1 1.0125 0.170208
0.075776 0.1 -1.0125 0.170384
0.990306 0.1 -0.225 0.314355
0.990306 0.1 0.225 0.314275
0.287374 0.1 0.975 0.156091
0.287374 0.1 -0.975 0.156269
0.871687 0.1 -0.525 0.25298
0.871687 0.1 0.525 0.25282
1.02149 0.1 -0.0369628 0.334223
1.02149 0.1 0.0369628 0.334217
0.969689 0.1 -0.3375 0.298556
0.969689 0.1 0.3375 0.298445
1.02149 0.1 -0.110888 0.33184
1.02149 0.1 0.110888 0.331819
0.90582 0.1 0.4875 0.264398
0.90582 0.1 -0.4875 0.264548
0.623803 0.1 0.819003 0.186586
0 0.1 1.03201 0.168584
0 0.1 -1.03201 0.168762
0.0363518 0.1 1.03201 0.168584
0.0363518 0.1 -1.03201 0.168762
0.67013 0.1 -0.7875 0.193071
0.67013 0.1 0.7875 0.192874
0.623803 0.1 -0.825 0.185061
0.990306 0.1 -0.3 0.306794
0.990306 0.1 0.3 0.306689
0.219992 0.1 -1.0125 0.151702
0.219993 0.1 1.0125 0.151526
0.574156 0.1 0.8625 0.177245
0.574157 0.1 -0.8625 0.177437
0.714971 0.1 -0.75 0.201781
0.714971 0.1 0.75 0.201584
1.02149 0.1 0.184814 0.327085
1.02149 0.1 -0.184814 0.327122
0.756814 0.1 -0.7125 0.210944
0.756814 0.1 0.7125 0.210748
0.522865 0.1 0.9 0.170428
0.93886 0.1 -0.45 0.276422
0.93886 0.1 0.45 0.276278
1.04168 0.1 0 0.340337
1.04168 0.1 -0.0729162 0.339155
1.04168 0.1 0.0729162 0.33913
0.522865 0.1 -0.903998 0.171449
0.797314 0.1 -0.675 0.220887
0.797314 0.1 0.675 0.220697
0.467897 0.1 0.9375 0.163931
0.467897 0.1 -0.9375 0.164123
0 0.1 1.05 0.16709
0 0.1 -1.05 0.16727
0.835106 0.1 -0.6375 0.231301
0.835106 0.1 0.6375 0.231117
1.04168 0.1 -0.145832 0.335612
1.04168 0.1 0.145832 0.335559
1.02149 0.1 -0.25874 0.320196
1.02149 0.1 0.25874 0.320136
0.969689 0.1 -0.4125 0.288699
0.969689 0.1 0.4125 0.288561
0.411108 0.1 0.975 0.158854
0.411108 0.1 -0.975 0.159044
0.871687 0.1 -0.6 0.242059
0.871687 0.1 0.6 0.241879
1.0579 0.1 -0.0360525 0.345112
1.0579 0.1 0.0360525 0.345119
0.990306 0.1 -0.375 0.2974
0.990306 0.1 0.375 0.297272
0.150379 0.1 1.05 0.157523
0.150379 0.1 -1.05 0.157703
1.0579 0.1 0.108157 0.342753
1.0579 0.1 -0.108157 0.342735
1.04168 0.1 -0.218749 0.329792
1.04168 0.1 0.218749 0.329708
0.90582 0.1 -0.5625 0.253364
0.90582 0.1 0.5625 0.25319
0 0.1 -1.06799 0.165778
0 0.1 1.06799 0.165596
0.0363518 0.1 -1.06799 0.165778
0.0363518 0.1 1.06799 0.165596
0.350249 0.1 1.0125 0.154122
0.350249 0.1 -1.0125 0.154308
1.0579 0.1 -0.180262 0.338034
1.0579 0.1 0.180262 0.33806
1.02149 0.1 -0.332665 0.311219
1.02149 0.1 0.332665 0.311144
0.93886 0.1 -0.525 0.265166
0.93886 0.1 0.525 0.264998
1.08012 0.1 5.49329e-18 0.351885
1.04168 0.1 -0.291665 0.321834
1.04168 0.1 0.291665 0.32172
1.08012 0.1 0.0709941 0.350695
1.08012 0.1 -0.0709941 0.3507
0.969689 0.1 -0.4875 0.277418
0.96969 0.1 0.4875 0.277256
1.0579 0.1 0.252367 0.331155
1.0579 0.1 -0.252367 0.331128
0.990306 0.1 -0.45 0.286419
0.990306 0.1 0.45 0.286264
0.287374 0.1 -1.05 0.149771
0.287374 0.1 1.05 0.149585
0.714971 0.1 0.821002 0.192609
1.08012 0.1 -0.141988 0.347162
1.08012 0.1 0.141988 0.347148
0.075776 0.1 1.0875 0.163979
0.075776 0.1 -1.0875 0.164163
0.714971 0.1 -0.825 0.192068
0.756813 0.1 -0.7875 0.200742
0.756814 0.1 0.7875 0.200531
0.67013 0.1 -0.8625 0.183846
0.67013 0.1 0.8625 0.183641
0.797314 0.1 -0.75 0.210221
0.797314 0.1 0.75 0.210012
0.623803 0.1 0.9 0.176089
0.835106 0.1 -0.7125 0.220181
0.835106 0.1 0.7125 0.219978
0.623803 0.1 -0.903998 0.177218
0.574156 0.1 0.9375 0.168922
0.574156 0.1 -0.9375 0.169126
1.02149 0.1 -0.406591 0.300441
1.02149 0.1 0.406591 0.300349
1.08012 0.1 -0.212982 0.341349
1.08012 0.1 0.212982 0.341323
1.10076 0.1 -0.0349809 0.358392
1.10076 0.1 0.0349809 0.358379
0.871687 0.1 -0.675 0.230492
0.871687 0.1 0.675 0.230293
1.04168 0.1 -0.364581 0.311932
1.04168 0.1 0.364581 0.311794
1.10076 0.1 -0.104943 0.356025
1.10076 0.1 0.104943 0.355984
0.522865 0.1 0.975 0.162497
0.522865 0.1 -0.975 0.1627
1.0579 0.1 -0.324472 0.322166
1.0579 0.1 0.324472 0.322197
0 0.1 -1.10701 0.162532
0 0.1 1.10701 0.162347
0.0363518 0.1 1.10701 0.162347
0.0363518 0.1 -1.10701 0.162532
0.90582 0.1 0.6375 0.241183
0.905821 0.1 -0.6375 0.241377
0.219992 0.1 1.0875 0.145261
0.219992 0.1 -1.0875 0.145444
0.93886 0.1 0.6 0.252777
0.93886 0.1 -0.6 0.252969
1.10076 0.1 -0.174905 0.351318
1.10076 0.1 0.174905 0.351247
0.467897 0.1 1.0125 0.156384
0.467897 0.1 -1.0125 0.156582
1.08012 0.1 -0.283976 0.333391
1.08012 0.1 0.283976 0.333351
1.11928 0.1 3.93204e-18 0.36372
0.990306 0.1 -0.525 0.27413
0.990306 0.1 0.525 0.273951
0.96969 0.1 -0.5625 0.265038
0.969689 0.1 0.5625 0.264852
1.11928 0.1 -0.0690357 0.362532
1.11928 0.1 0.0690357 0.362516
0 0.1 1.125 0.160845
0 0.1 -1.125 0.161032
0.411108 0.1 -1.05 0.151885
0.411108 0.1 1.05 0.151687
1.10076 0.1 0.244866 0.344277
1.10076 0.1 -0.244866 0.344383
1.11928 0.1 -0.138072 0.358974
1.11928 0.1 0.138072 0.358939
1.02149 0.1 0.480517 0.288016
1.02149 0.1 -0.480517 0.288126
1.0579 0.1 -0.396577 0.311373
1.0579 0.1 0.396577 0.311407
1.04168 0.1 -0.437497 0.300335
1.04168 0.1 0.437497 0.300172
0.150379 0.1 1.125 0.151261
0.150379 0.1 -1.125 0.151447
0.714971 0.1 0.88201 0.185938
1.08012 0.1 0.354971 0.323415
1.08012 0.1 -0.354971 0.323464
1.11928 0.1 -0.207107 0.353118
1.11928 0.1 0.207107 0.353061
0.350249 0.1 -1.0875 0.147525
0.350249 0.1 1.0875 0.147326
0 0.1 1.14299 0.159343
0 0.1 -1.14299 0.159532
0.0363518 0.1 1.14299 0.159343
0.0363518 0.1 -1.14299 0.159532
1.14316 0.1 -0.0339211 0.371192
1.14316 0.1 0.0339211 0.371205
0.797314 0.1 0.821002 0.19954
1.10076 0.1 -0.314829 0.335355
1.10076 0.1 0.314829 0.335219
0.797314 0.1 -0.825 0.199322
0.756814 0.1 -0.8625 0.190378
0.756814 0.1 0.8625 0.190152
1.14316 0.1 -0.101763 0.36878
1.14316 0.1 0.101763 0.368817
0.835106 0.1 -0.7875 0.208757
0.835106 0.1 0.7875 0.208531
0.871687 0.1 -0.75 0.218514
0.871687 0.1 0.75 0.218295
0.67013 0.1 0.9375 0.174335
0.67013 0.1 -0.9375 0.174553
0.90582 0.1 -0.7125 0.228853
0.905821 0.1 0.7125 0.22864
0.714971 0.1 -0.903998 0.183268
1.11928 0.1 0.276143 0.345007
1.11928 0.1 -0.276143 0.345088
1.14316 0.1 0.169605 0.364067
1.14316 0.1 -0.169605 0.364011
0.93886 0.1 -0.675 0.240085
0.93886 0.1 0.675 0.239873
1.15704 0.1 0 0.37532
1.0579 0.1 0.468682 0.299032
1.0579 0.1 -0.468682 0.299
0.623803 0.1 0.975 0.167266
0.623803 0.1 -0.975 0.167483
0.990306 0.1 0.6 0.260632
0.990306 0.1 -0.6 0.260836
1.15704 0.1 -0.0671479 0.374132
1.15704 0.1 0.0671479 0.374103
1.04168 0.1 -0.510414 0.287327
1.04168 0.1 0.510414 0.287138
0.969689 0.1 -0.6375 0.251829
0.969689 0.1 0.6375 0.251617
1.08012 0.1 0.425965 0.311741
1.08012 0.1 -0.425965 0.3118
0.287374 0.1 -1.125 0.143237
0.287374 0.1 1.125 0.143044
1.02149 0.1 -0.554443 0.274584
1.02149 0.1 0.554443 0.274453
0.574156 0.1 1.0125 0.160573
0.574156 0.1 -1.0125 0.160789
1.15704 0.1 -0.134296 0.37056
1.15704 0.1 0.134296 0.370499
0.075776 0.1 1.1625 0.157718
0.075776 0.1 -1.1625 0.157909
1.10076 0.1 -0.384791 0.324439
1.10076 0.1 0.384791 0.324278
1.14316 0.1 -0.237448 0.356985
1.14316 0.1 0.237448 0.357055
1.11928 0.1 -0.345179 0.335047
1.11928 0.1 0.345179 0.334948
0.522865 0.1 1.05 0.154555
0.522865 0.1 -1.05 0.154768
1.15704 0.1 -0.201444 0.364672
1.15704 0.1 0.201444 0.364577
1.1744 0.1 -0.0331401 0.380545
1.1744 0.1 0.0331401 0.380532
1.1744 0.1 -0.0994202 0.378151
1.1744 0.1 0.0994202 0.378113
0 0.1 1.18201 0.156091
0 0.1 -1.18201 0.156283
0.0363518 0.1 1.18201 0.156091
0.0363518 0.1 -1.18201 0.156283
0.219992 0.1 1.1625 0.138969
0.219993 0.1 -1.1625 0.139155
1.14316 0.1 0.30529 0.347919
1.14316 0.1 -0.30529 0.347837
0.467897 0.1 1.0875 0.148836
0.467897 0.1 -1.0875 0.149046
1.1744 0.1 -0.1657 0.373393
1.1744 0.1 0.1657 0.373323
1.15704 0.1 -0.268592 0.356585
1.15704 0.1 0.268592 0.356454
1.0579 0.1 0.540787 0.285374
1.0579 0.1 -0.540787 0.28535
0.796996 0.1 0.88201 0.190742
1.08012 0.1 -0.496959 0.298669
1.08012 0.1 0.496959 0.298598
1.10076 0.1 0.454752 0.311689
1.10076 0.1 -0.454752 0.311872
1.11928 0.1 -0.414214 0.323216
1.11928 0.1 0.414214 0.323101
1.04168 0.1 -0.58333 0.273208
1.04168 0.1 0.58333 0.272993
1.1744 0.1 -0.231981 0.366363
1.1744 0.1 0.231981 0.366261
0.871687 0.1 0.821002 0.206615
0.411108 0.1 1.125 0.144526
0.411108 0.1 -1.125 0.144732
1.19808 0.1 1.73472e-17 0.388003
0.990306 0.1 0.675 0.246604
0.990306 0.1 -0.675 0.24683
1.02149 0.1 0.628368 0.259958
1.02149 0.1 -0.628368 0.260109
1.19808 0.1 -0.0650961 0.386814
1.19808 0.1 0.0650961 0.386783
0 0.1 1.2 0.154594
0 0.1 -1.2 0.154787
0.871687 0.1 -0.825 0.206344
0.905821 0.1 -0.7875 0.216049
0.90582 0.1 0.7875 0.215815
0.835106 0.1 -0.8625 0.197187
0.835106 0.1 0.8625 0.19695
0.93886 0.1 -0.75 0.22679
0.93886 0.1 0.75 0.226558
1.14316 0.1 -0.373132 0.336754
1.14316 0.1 0.373132 0.336851
0.969689 0.1 0.7125 0.237816
0.969689 0.1 -0.7125 0.238046
1.15704 0.1 -0.33574 0.346453
1.15704 0.1 0.33574 0.346291
0.756813 0.1 0.9375 0.179757
0.756814 0.1 -0.9375 0.179997
1.19808 0.1 0.130192 0.383172
1.19808 0.1 -0.130192 0.383236
0.797314 0.1 -0.903998 0.189495
0.714971 0.1 0.975 0.172194
0.714971 0.1 -0.975 0.172426
0.150379 0.1 1.2 0.14499
0.150379 0.1 -1.2 0.145182
1.20938 0.1 -0.0322656 0.391165
1.20938 0.1 0.0322656 0.391149
1.1744 0.1 -0.298261 0.357192
1.1744 0.1 0.298261 0.357057
1.20938 0.1 -0.0967968 0.38877
1.20938 0.1 0.0967968 0.388726
1.19808 0.1 -0.195288 0.377335
1.19808 0.1 0.195288 0.377234
0.350249 0.1 1.1625 0.140539
0.350249 0.1 -1.1625 0.140741
0.67013 0.1 1.0125 0.165056
0.67013 0.1 -1.0125 0.165282
0 0.1 1.21799 0.153097
0 0.1 -1.21799 0.153292
0.0363518 0.1 -1.21799 0.153292
0.0363518 0.1 1.21799 0.153097
1.11928 0.1 -0.48325 0.309852
1.11928 0.1 0.48325 0.30972
1.10076 0.1 -0.524714 0.297949
1.10076 0.1 0.524714 0.297742
1.20938 0.1 0.161328 0.383924
1.20938 0.1 -0.161328 0.384009
1.08012 0.1 0.567953 0.284293
1.08012 0.1 -0.567953 0.284381
0.623803 0.1 1.05 0.15849
0.623803 0.1 -1.05 0.158718
1.0579 0.1 -0.612892 0.270724
1.0579 0.1 0.612892 0.270735
1.15704 0.1 -0.402888 0.334488
1.15704 0.1 0.402888 0.334301
1.14316 0.1 0.440974 0.324084
1.14316 0.1 -0.440974 0.323975
1.19808 0.1 -0.260384 0.369219
1.19808 0.1 0.260384 0.369081
1.2267 0.1 3.57064e-18 0.396286
1.2267 0.1 -0.0636649 0.395094
1.2267 0.1 0.0636649 0.395066
1.1744 0.1 -0.364541 0.346053
1.1744 0.1 0.364541 0.345892
0.574156 0.1 1.0875 0.152279
0.574156 0.1 -1.0875 0.152507
1.20938 0.1 0.225859 0.376844
1.20938 0.1 -0.225859 0.376965
1.04168 0.1 -0.656246 0.258303
1.04168 0.1 0.656246 0.258066
1.2267 0.1 -0.12733 0.391512
1.2267 0.1 0.12733 0.391452
0.287374 0.1 1.2 0.136511
0.287374 0.1 -1.2 0.136711
1.02149 0.1 -0.702294 0.245073
1.02149 0.1 0.702294 0.244903
0.075776 0.1 -1.2375 0.151673
0.075776 0.1 1.2375 0.151477
0.871399 0.1 0.88201 0.196828
0.522865 0.1 1.125 0.146675
0.522865 0.1 -1.125 0.146895
1.2267 0.1 -0.190994 0.385601
1.2267 0.1 0.190994 0.385505
1.19808 0.1 -0.32548 0.359033
1.19808 0.1 0.32548 0.35886
0.990306 0.1 -0.75 0.23243
0.990306 0.1 0.75 0.232184
1.24274 0.1 -0.0314313 0.401078
1.24274 0.1 0.0314313 0.401059
1.20938 0.1 -0.29039 0.367765
1.20938 0.1 0.29039 0.367606
1.24274 0.1 -0.0942942 0.39868
1.24274 0.1 0.0942942 0.398633
0.93886 0.1 0.821002 0.213654
1.11928 0.1 -0.552285 0.295275
1.11928 0.1 0.552285 0.295123
1.15704 0.1 -0.470036 0.320935
1.15704 0.1 0.470036 0.320724
0.969689 0.1 -0.7875 0.224007
0.96969 0.1 0.7875 0.223756
0.93886 0.1 -0.825 0.213345
0.90582 0.1 0.8625 0.202953
0.905821 0.1 -0.8625 0.203202
1.1744 0.1 -0.430821 0.333185
1.1744 0.1 0.430821 0.333004
1.10076 0.1 -0.594676 0.283004
1.10076 0.1 0.594676 0.282771
1.14316 0.1 -0.508816 0.309764
1.14316 0.1 0.508816 0.309878
1.24274 0.1 -0.157157 0.393913
1.24274 0.1 0.157157 0.393823
1.2267 0.1 -0.254659 0.377463
1.2267 0.1 0.254659 0.377334
0.467897 0.1 1.1625 0.141356
0.467897 0.1 -1.1625 0.141567
1.08012 0.1 0.638947 0.269138
1.08012 0.1 -0.638947 0.269244
1.25511 0.1 -5.78241e-19 0.404466
0.835106 0.1 -0.9375 0.185686
0.835106 0.1 0.9375 0.185427
0.871687 0.1 -0.903998 0.195418
1.25511 0.1 0.0622446 0.403269
1.25511 0.1 -0.0622446 0.403251
0.219992 0.1 1.2375 0.13268
0.219992 0.1 -1.2375 0.132877
0 0.1 -1.25701 0.150064
0 0.1 1.25701 0.149866
0.0363518 0.1 -1.25701 0.150064
0.0363518 0.1 1.25701 0.149866
0.797314 0.1 0.975 0.177227
0.797314 0.1 -0.975 0.177479
1.19808 0.1 -0.390576 0.34698
1.19808 0.1 0.390576 0.346779
1.0579 0.1 -0.684997 0.255456
1.0579 0.1 0.684997 0.255454
1.20938 0.1 -0.354921 0.356571
1.20938 0.1 0.354921 0.35638
1.25511 0.1 0.124489 0.399676
1.25511 0.1 -0.124489 0.399642
1.24274 0.1 -0.220019 0.386852
1.24274 0.1 0.220019 0.386725
0.756813 0.1 1.0125 0.169466
0.756814 0.1 -1.0125 0.169708
1.2267 0.1 -0.318324 0.367243
1.2267 0.1 0.318324 0.36708
0.411108 0.1 1.2 0.137426
0.411108 0.1 -1.2 0.137638
1.25511 0.1 -0.186734 0.393699
1.25511 0.1 0.186734 0.393744
0.714971 0.1 1.05 0.162488
0.714971 0.1 -1.05 0.16273
1.04168 0.1 -0.729162 0.242972
1.04168 0.1 0.729162 0.242715
1.24274 0.1 0.282882 0.377457
1.24274 0.1 -0.282882 0.377622
0 0.1 1.275 0.148384
0 0.1 -1.275 0.148583
1.1744 0.1 0.497102 0.318633
1.1744 0.1 -0.497102 0.318836
1.15704 0.1 -0.537184 0.306105
1.15704 0.1 0.537184 0.305871
1.2756 0.1 -0.03061 0.410729
1.2756 0.1 0.03061 0.410715
0.67013 0.1 1.0875 0.155907
0.67013 0.1 -1.0875 0.156146
1.2756 0.1 -0.09183 0.40833
1.2756 0.1 0.09183 0.408295
1.25511 0.1 -0.248978 0.385521
1.25511 0.1 0.248978 0.385576
1.20938 0.1 0.419453 0.343405
1.20938 0.1 -0.419453 0.343622
1.11928 0.1 -0.621322 0.279797
1.11928 0.1 0.621322 0.279624
1.14316 0.1 -0.576659 0.294487
1.14316 0.1 0.576659 0.294598
1.19808 0.1 -0.455673 0.333298
1.19808 0.1 0.455673 0.333073
1.02149 0.1 0.776219 0.22964
1.02149 0.1 -0.776219 0.229829
0.150379 0.1 1.275 0.138752
0.150379 0.1 -1.275 0.138951
1.2756 0.1 -0.15305 0.403558
1.2756 0.1 0.15305 0.403493
1.2267 0.1 -0.381989 0.355137
1.2267 0.1 0.381989 0.354945
1.10076 0.1 -0.664638 0.26732
1.10076 0.1 0.664638 0.267063
0.350249 0.1 1.2375 0.133796
0.350249 0.1 -1.2375 0.134009
0.623803 0.1 1.125 0.149841
0.623803 0.1 -1.125 0.150076
0.9386 0.1 0.88201 0.202887
0.990306 0.1 0.825 0.218088
0.990306 0.1 -0.825 0.217918
1.24274 0.1 -0.345745 0.366378
1.24274 0.1 0.345745 0.366178
1.2906 0.1 0 0.414937
1.07933 0.1 0.709941 0.253473
1.2906 0.1 -0.0604698 0.413752
1.2906 0.1 0.0604698 0.413713
1.08012 0.1 -0.709941 0.253596
0 0.1 1.29299 0.146902
0 0.1 -1.29299 0.147102
1.25511 0.1 0.311223 0.375309
1.25511 0.1 -0.311223 0.375247
1.2756 0.1 -0.214269 0.396482
1.2756 0.1 0.214269 0.396391
0.0363518 0.1 1.29299 0.146902
0.0363518 0.1 -1.29299 0.147102
1.2906 0.1 -0.12094 0.410171
1.2906 0.1 0.12094 0.410092
0.574156 0.1 1.1625 0.14411
0.574157 0.1 -1.1625 0.144338
0.969689 0.1 0.8625 0.209681
0.969689 0.1 -0.8625 0.209947
1.0579 0.1 0.757102 0.239882
1.0579 0.1 -0.757102 0.239902
1.1744 0.1 -0.563382 0.30336
1.1744 0.1 0.563382 0.303137
1.20938 0.1 0.483984 0.328913
1.20938 0.1 -0.483984 0.329153
1.2906 0.1 -0.181409 0.404245
1.2906 0.1 0.181409 0.404126
0.93886 0.1 -0.903998 0.201333
0.90582 0.1 0.9375 0.190221
0.90582 0.1 -0.9375 0.190489
1.2756 0.1 0.275489 0.387106
1.2756 0.1 -0.275489 0.387223
1.2267 0.1 -0.445653 0.341378
1.2267 0.1 0.445653 0.341163
1.15704 0.1 -0.604332 0.290325
1.15704 0.1 0.604332 0.290067
1.19808 0.1 -0.520769 0.318277
1.19808 0.1 0.520769 0.318029
1.30646 0.1 0.0298385 0.41947
1.30646 0.1 -0.0298385 0.419483
0.287374 0.1 -1.275 0.130231
0.287374 0.1 1.275 0.130025
0.871687 0.1 0.975 0.181908
0.871687 0.1 -0.975 0.182176
1.24274 0.1 0.408607 0.353127
1.24274 0.1 -0.408607 0.353358
0.522865 0.1 1.2 0.138919
0.522865 0.1 -1.2 0.139145