# pMean  POINT_DATA 91129
# x  y  z  pMean
0 0 0 0.236916
0 0.00368111 0 0.236581
0 0.00749587 0 0.235847
0 0.0114491 0 0.235112
0 0.0155459 0 0.234447
0 0.0197915 0 0.233748
0 0.0241911 0 0.232957
0 0.0287506 0 0.232086
0 0.0334755 0 0.231165
0 0.038372 0 0.230213
0 0.0434463 0 0.22924
0 0.0487048 0 0.228256
0 0.0541543 0 0.227289
0 0.0598016 0 0.226385
0 0.0656539 0 0.225554
0 0.0717187 0 0.224756
0.075776 0.00184055 0 0.236916
0.075776 0.00558849 0 0.236246
0.075776 0.00947248 -3.46945e-18 0.235449
0.075776 0.0134975 -3.46945e-18 0.234775
0.075776 0.0176687 3.46945e-18 0.234118
0 0.0780037 0 0.223949
0.075776 0.0219913 3.46945e-18 0.233377
0.075776 0.0264709 3.46945e-18 0.232538
0.075776 0.031113 -3.46945e-18 0.231634
0.075776 0.0359237 -3.46945e-18 0.230695
0 0.0845169 0 0.223127
0.075776 0.0409092 0 0.22973
0.075776 0.0460755 -3.46945e-18 0.228749
0 0.0912666 0 0.222291
0.075776 0.0514296 -3.46945e-18 0.227763
0.075776 0.0569779 0 0.226815
0 0.0982613 0 0.221443
0.075776 0.0627278 0 0.225954
0.075776 0.0686863 0 0.225154
0 0.10551 0 0.220582
0.075776 0.0748612 3.46945e-18 0.224357
0.075776 0.0812603 -3.46945e-18 0.223542
0 0.113022 0 0.219706
0.075776 0.0878918 3.46945e-18 0.222712
0 0.120806 0 0.218813
0.075776 0.0947639 3.46945e-18 0.22187
0.075776 0.101886 -3.46945e-18 0.221015
0 0.128874 0 0.217903
0.075776 0.109266 3.46945e-18 0.220148
0 0.137234 0 0.216984
0.075776 0.116914 3.46945e-18 0.219264
0 0.145897 0 0.216081
0.075776 0.12484 0 0.218362
0.151552 0 0 0.219136
0.151552 0.00368111 0 0.219008
0.151552 0.00749587 0 0.218755
0.151552 0.0114491 0 0.218546
0.151552 0.0155459 0 0.218375
0.151552 0.0197915 0 0.218179
0.075776 0.133054 0 0.217443
0.151552 0.0241911 0 0.217931
0.151552 0.0287506 0 0.217637
0 0.154876 0 0.215217
0.151552 0.0334755 0 0.217311
0.151552 0.038372 0 0.216965
0.151552 0.0434463 0 0.216603
0.151552 0.0487048 0 0.216229
0.075776 0.141566 0 0.216525
0.151552 0.0541543 0 0.215855
0.151552 0.0598016 0 0.215504
0 0.16418 0 0.214407
0.151552 0.0656539 0 0.21518
0.151552 0.0717187 0 0.214862
0.075776 0.150387 0 0.215636
0.151552 0.0780037 0 0.214531
0.151552 0.0845169 0 0.214182
0 0.173822 0 0.213647
0.075776 0.159528 0 0.214798
0.151552 0.0912666 0 0.213817
0.151552 0.0982613 0 0.21344
0 0.183814 0 0.212922
0.151552 0.10551 0 0.213054
0.075776 0.169001 3.46945e-18 0.214016
0.151552 0.113022 0 0.212654
0.151552 0.120806 0 0.212237
0 0.194169 0 0.212215
0.075776 0.178818 3.46945e-18 0.213278
0.151552 0.128874 0 0.211796
0.075776 0.188992 3.46945e-18 0.212566
0.151552 0.137234 0 0.211335
0 0.2049 0 0.211509
0.151552 0.145897 0 0.210867
0.075776 0.199535 0 0.211863
0 0.21602 0 0.210789
0.151552 0.154876 0 0.210406
0.219992 0.00184055 0 0.202725
0.219992 0.00558849 0 0.202847
0.219992 0.00947248 -3.46945e-18 0.203108
0.219992 0.0134975 3.46945e-18 0.203402
0.219992 0.0176687 0 0.203677
0.219992 0.0219913 0 0.203938
0.219993 0.0264709 -3.46945e-18 0.204184
0.219992 0.031113 -3.46945e-18 0.204414
0.219992 0.0359238 3.46945e-18 0.204632
0.151552 0.16418 0 0.209958
0.075776 0.21046 0 0.211156
0.219992 0.0409092 3.46945e-18 0.20484
0.219992 0.0460755 0 0.205036
0.219993 0.0514296 -3.46945e-18 0.205217
0.219992 0.0569779 0 0.205384
0 0.227544 0 0.210029
0.219992 0.0627277 3.46945e-18 0.205535
0.219992 0.0686863 0 0.205671
0.151552 0.173822 0 0.209521
0.219992 0.0748612 3.46945e-18 0.205788
0.075776 0.221782 0 0.210422
0.219992 0.0812603 3.46945e-18 0.205886
0.219992 0.0878917 -3.46945e-18 0.205964
0.151552 0.183814 0 0.209087
7.47806e-17 0.239487 0 0.209215
0.219992 0.0947639 3.46945e-18 0.206026
0.219993 0.101886 3.46945e-18 0.20608
0.075776 0.233516 0 0.209635
0.219993 0.109266 0 0.206128
0.151552 0.194169 0 0.208647
0.219993 0.116914 0 0.206161
0 0.251863 0 0.20836
0.219993 0.12484 0 0.206169
0.151552 0.2049 0 0.208192
0.075776 0.245675 0 0.208794
0.219992 0.133054 3.46945e-18 0.206146
0.219992 0.141565 0 0.206093
0.151552 0.21602 0 0.207714
0 0.264688 0 0.207483
0.219992 0.150387 3.46945e-18 0.206015
0.075776 0.258275 3.46945e-18 0.207925
0.219992 0.159528 -3.46945e-18 0.205914
0.151552 0.227544 0 0.207199
0.219992 0.169001 3.46945e-18 0.205788
0 0.27798 0 0.20659
0.075776 0.271334 3.46945e-18 0.207041
0.151552 0.239487 3.70071e-18 0.20664
0.219992 0.178818 3.46945e-18 0.205636
0.288433 0 0 0.206801
0.288433 0.00368111 0 0.206845
0.288433 0.00749587 0 0.206977
0.288433 0.0114491 0 0.207167
0.288433 0.0155459 3.70071e-18 0.207368
0.288433 0.0197915 0 0.207567
0.288433 0.0241911 3.70071e-18 0.207761
0.288433 0.0287506 0 0.207949
0.219992 0.188991 0 0.205457
0.288433 0.0334755 0 0.20813
0.288433 0.038372 0 0.208306
0.288433 0.0434463 0 0.208475
7.47806e-17 0.291753 0 0.205675
0.288433 0.0487048 0 0.208636
0.288433 0.0541543 0 0.208788
0.151552 0.251863 0 0.206043
0.288433 0.0598016 3.70071e-18 0.208929
0.075776 0.284866 0 0.206138
0.288433 0.0656539 3.70071e-18 0.20906
0.219992 0.199534 0 0.205249
0.288433 0.0717187 0 0.20918
0.288433 0.0780037 0 0.20929
0.288433 0.0845169 0 0.209385
0.288433 0.0912666 0 0.209461
0.219992 0.21046 -3.46945e-18 0.20501
0.288433 0.0982613 0 0.209517
0.151552 0.264688 3.70071e-18 0.205418
0 0.306027 0 0.20473
0.288433 0.10551 0 0.209559
0.075776 0.29889 3.46945e-18 0.205211
0.288433 0.113022 0 0.209586
0.219993 0.221782 0 0.204739
0.288433 0.120806 0 0.209597
0.288433 0.128874 0 0.20959
0.151552 0.27798 0 0.204771
0.288433 0.137234 0 0.209563
0 0.320819 0 0.203746
0.219992 0.233515 -3.46945e-18 0.204434
0.075776 0.313423 -3.46945e-18 0.204248
0.288433 0.145897 0 0.209513
0.288433 0.154876 0 0.209438
0.151552 0.291753 0 0.2041
0.219993 0.245675 0 0.204092
0.288433 0.16418 0 0.209338
0 0.336148 0 0.202741
0.288433 0.173822 0 0.209212
0.075776 0.328484 -3.46945e-18 0.203244
0.219993 0.258275 -3.46945e-18 0.203714
0.151552 0.306027 0 0.203394
0.288433 0.183814 0 0.20906
0.288433 0.194169 0 0.208879
0.219992 0.271334 3.46945e-18 0.203307
0.350249 0.00184056 -3.46945e-18 0.210577
0.350249 0.00558849 0 0.210634
0.350249 0.00947248 3.46945e-18 0.210732
0.350249 0.0134975 0 0.210851
0.350249 0.0176687 0 0.210981
0.350249 0.0219913 0 0.211118
0.350249 0.0264708 3.46945e-18 0.21126
0.350249 0.031113 0 0.211401
0 0.352034 0 0.20175
0.350249 0.0359238 0 0.211543
0.075776 0.344091 0 0.202238
0.350249 0.0409091 0 0.211683
0.350249 0.0460756 3.46945e-18 0.211821
0.288433 0.2049 0 0.208668
0.350249 0.0514296 0 0.211955
0.151552 0.320819 0 0.202643
0.350249 0.0569779 0 0.212083
0.350249 0.0627277 3.46945e-18 0.212204
0.350249 0.0686863 3.46945e-18 0.21232
0.350249 0.0748612 3.46945e-18 0.212435
0.350249 0.0812603 0 0.212545
0.219992 0.284867 0 0.202876
0.288433 0.21602 0 0.208425
0.350249 0.0878917 0 0.212639
0.350249 0.094764 0 0.212705
0.350249 0.101886 0 0.212749
0.350249 0.109266 0 0.212773
0.288433 0.227544 0 0.208149
0.075776 0.360265 3.46945e-18 0.201262
0 0.368496 0 0.200767
0.151552 0.336148 0 0.201853
0.350249 0.116914 3.46945e-18 0.212778
0.219992 0.29889 0 0.202414
0.370854 0.0241911 1.54074e-33 0.214242
0.350249 0.12484 0 0.212774
0.350249 0.133054 0 0.212766
0.288433 0.239487 -9.25154e-19 0.207836
0.350249 0.141566 3.46945e-18 0.212743
0.350249 0.150387 3.46945e-18 0.212694
0.288433 0.251863 0 0.207486
0.219992 0.313423 0 0.201906
0.151552 0.352034 0 0.20104
0.075776 0.377027 0 0.200271
0.350249 0.159528 0 0.212619
0 0.385557 0 0.199739
0.350249 0.169001 0 0.212519
0.288433 0.264688 0 0.2071
0.350249 0.178818 0 0.212393
0.219992 0.328484 0 0.201343
0.350249 0.188992 0 0.212239
0.151552 0.368496 0 0.200203
0.288433 0.27798 3.70071e-18 0.20668
0.075776 0.394397 0 0.199207
0.350249 0.199535 0 0.212056
7.47806e-17 0.403236 0 0.19864
0.219992 0.344091 0 0.200721
0.350249 0.21046 -3.46945e-18 0.211841
0.288433 0.291753 0 0.206226
0.412065 9.08189e-19 3.08149e-33 0.217078
0.412065 0.00368111 -2.31298e-18 0.217098
0.412065 0.00749587 -2.31298e-18 0.217152
0.412065 0.0114491 -2.31298e-18 0.217226
0.412065 0.0155459 -2.31298e-18 0.217308
0.412065 0.0197915 0 0.217394
0.412065 0.0241911 -3.08149e-33 0.217483
0.412065 0.0264709 0 0.21753
0.412065 0.0287506 -2.31298e-18 0.217576
0.412065 0.0334755 -2.31298e-18 0.21767
0.412065 0.038372 -2.31298e-18 0.217767
0.151552 0.385557 0 0.199319
0.412065 0.0434463 0 0.217864
0.350249 0.221782 0 0.211592
0.412065 0.0487048 0 0.217962
0.412065 0.0541543 -3.08149e-33 0.218059
0.412065 0.0569779 0 0.218106
0.412065 0.0598016 -2.31298e-18 0.218154
0.412065 0.0656539 -2.31298e-18 0.218245
0.412065 0.0717187 -2.31298e-18 0.218329
0.075776 0.412396 -3.46945e-18 0.198072
0.412065 0.0780037 -2.31298e-18 0.218397
0.288433 0.306027 0 0.205732
0.412065 0.0845169 -2.31298e-18 0.21844
0.350249 0.233516 3.46945e-18 0.211309
0 0.421557 0 0.19748
0.412065 0.0912666 -2.31298e-18 0.218457
0.219992 0.360265 3.46945e-18 0.200046
0.412065 0.0982613 0 0.218456
0.412065 0.10551 0 0.218439
0.412065 0.113022 -2.31298e-18 0.218406
0.350249 0.245675 0 0.210988
0.412065 0.120806 0 0.218359
0.151552 0.403236 0 0.198372
0.288433 0.320819 0 0.205189
0.412065 0.128874 -2.31298e-18 0.2183
0.412065 0.137234 0 0.218228
0.350249 0.258275 -3.46945e-18 0.210628
0.219992 0.377026 0 0.19932
0.412065 0.145897 -2.31298e-18 0.218139
0.075776 0.431051 0 0.196887
0.412065 0.154876 -2.31298e-18 0.21803
0 0.440544 0 0.196274
0.288433 0.336148 0 0.204594
0.350249 0.271334 0 0.210227
0.412065 0.16418 -2.31298e-18 0.2179
0.412065 0.173822 -2.31298e-18 0.217747
0.151552 0.421557 0 0.197364
0.412065 0.183814 -2.31298e-18 0.217571
0.350249 0.284867 3.46945e-18 0.209787
0.219992 0.394397 0 0.198543
0.288433 0.352034 3.70071e-18 0.203943
0.412065 0.194169 0 0.217368
0.075776 0.450382 0 0.19566
0.412065 0.2049 -2.31298e-18 0.217137
0 0.46022 0 0.195027
0.350249 0.29889 3.46945e-18 0.209306
0.412065 0.21602 0 0.216876
0.151552 0.440544 0 0.196301
0.219993 0.412396 3.46945e-18 0.197707
0.467897 0.00184056 -3.46945e-18 0.223125
0.467897 0.00558849 0 0.223151
0.288433 0.368496 0 0.203239
0.467897 0.00947248 0 0.22319
0.467897 0.0134975 0 0.223232
0.467897 0.0176687 3.46945e-18 0.223275
0.467897 0.0219913 -3.46945e-18 0.223317
0.467897 0.0264709 3.46945e-18 0.223361
0.467897 0.0311131 3.46945e-18 0.22341
0.467897 0.0359238 -3.46945e-18 0.223463
0.467897 0.038372 0 0.224169
0.467897 0.0409092 3.46945e-18 0.22352
0.350249 0.313423 0 0.208781
0.467897 0.0460755 0 0.223581
0.467897 0.0514296 3.46945e-18 0.223646
0.412065 0.227544 -2.31298e-18 0.216583
0.467897 0.0569779 0 0.223712
0.467897 0.0627277 -3.46945e-18 0.22378
0.467897 0.0686863 3.46945e-18 0.223844
0.467897 0.0748612 0 0.223889
0.467897 0.0812603 0 0.223895
0.467897 0.0878918 3.46945e-18 0.223865
0.075776 0.470415 3.46945e-18 0.194391
0.412065 0.239487 -2.31298e-18 0.216255
0.467897 0.0947639 -3.46945e-18 0.223816
0.467897 0.101886 3.46945e-18 0.223757
0.350249 0.328483 0 0.208208
0.467897 0.109266 0 0.223688
0 0.48061 0 0.193733
0.288433 0.385557 0 0.202478
0.467897 0.116914 0 0.223604
0.412065 0.251863 -2.31298e-18 0.21589
0.219992 0.431051 0 0.196808
0.467897 0.12484 0 0.223503
0.151552 0.46022 0 0.195185
0.467897 0.133054 3.46945e-18 0.223385
0.467897 0.141566 3.46945e-18 0.223255
0.412065 0.264688 -2.31298e-18 0.215486
0.350249 0.344091 -3.46945e-18 0.207584
0.467897 0.150387 3.46945e-18 0.22311
0.467897 0.154876 0 0.223811
0.467897 0.159528 3.46945e-18 0.22295
0.288433 0.403236 0 0.201659
0.075776 0.491175 0 0.193073
0.412065 0.27798 -2.31298e-18 0.215042
0.467897 0.169001 0 0.222771
0.467897 0.178818 3.46945e-18 0.222571
0.219992 0.450382 0 0.195845
6.73026e-17 0.501741 3.70071e-18 0.192388
0.350249 0.360265 0 0.206904
0.151552 0.48061 0 0.194013
0.467897 0.188991 0 0.222349
0.412065 0.291753 0 0.214555
0.467897 0.199535 0 0.222102
0.288433 0.421557 0 0.200777
0.467897 0.21046 0 0.221829
0.412065 0.306027 0 0.214023
0.350249 0.377027 0 0.206167
0.467897 0.221782 3.46945e-18 0.221526
0.075776 0.51269 0 0.191701
0.219993 0.470415 3.46945e-18 0.194818
0.467897 0.227544 0 0.222106
0.412065 0.320819 -2.31298e-18 0.213444
0.467897 0.233515 0 0.221192
6.73026e-17 0.523639 3.70071e-18 0.190989
0.523729 0 0 0.230338
0.523729 0.00368111 0 0.230348
0.523729 0.00749587 -2.31298e-18 0.230375
0.523729 0.0114491 0 0.230407
0.523729 0.0155459 0 0.230438
0.523729 0.0197915 -2.31298e-18 0.230464
0.151552 0.501741 0 0.192778
0.523729 0.0241911 0 0.230487
0.523729 0.0287506 0 0.230512
0.523729 0.0334755 0 0.23054
0.523729 0.038372 -3.08149e-33 0.230571
0.523729 0.0434463 0 0.230605
0.523729 0.0487048 0 0.230643
0.523729 0.0541543 0 0.230684
0.288433 0.440544 0 0.199829
0.523729 0.0598016 0 0.230727
0.350249 0.394397 -3.46945e-18 0.205369
0.523729 0.0656539 0 0.230768
0.467897 0.245675 0 0.220824
0.523729 0.0717187 0 0.230794
0.523729 0.0780037 0 0.230785
0.523729 0.0845169 0 0.230736
0.523729 0.0912666 0 0.230662
0.412065 0.336148 0 0.212813
0.523729 0.0982613 0 0.230576
0.523729 0.10551 -2.31298e-18 0.230479
0.467897 0.258275 -3.46945e-18 0.220418
0.523729 0.113022 0 0.23037
0.523729 0.120806 -3.08149e-33 0.230246
0.219993 0.491176 0 0.193725
0.523729 0.12484 0 0.230176
0.523729 0.128874 -2.31298e-18 0.230106
0.075776 0.534986 0 0.190274
0.467897 0.271334 3.46945e-18 0.219973
0.350249 0.412396 -3.46945e-18 0.204507
0.523729 0.137234 0 0.229951
0.412065 0.352034 -2.31298e-18 0.212127
0.288433 0.46022 0 0.198812
0.523729 0.145897 0 0.229779
0.151552 0.523639 0 0.191477
0.523729 0.154876 -3.08149e-33 0.229591
0 0.546332 0 0.189532
0.523729 0.159528 0 0.229487
0.467897 0.284867 -3.46945e-18 0.219485
0.523729 0.16418 -2.31298e-18 0.229384
0.523729 0.173822 0 0.229155
0.412065 0.368496 0 0.211384
0.523729 0.183814 0 0.228904
0.467897 0.29889 0 0.218951
0.350249 0.431051 -3.46945e-18 0.203578
0.219992 0.51269 0 0.192555
0.523729 0.194169 0 0.228627
0.288433 0.48061 0 0.197725
0.523729 0.2049 0 0.228324
0.467897 0.313423 3.46945e-18 0.218368
0.075776 0.558091 0 0.188788
0.412065 0.385557 0 0.210579
0.523729 0.21602 -3.08149e-33 0.227992
0.151552 0.546332 0 0.190103
0 0.569849 0 0.188013
0.350249 0.450382 3.46945e-18 0.202578
0.523729 0.227544 -3.08149e-33 0.227629
0.467897 0.328483 0 0.217735
0.523729 0.231525 1.54074e-33 0.227496
0.574156 0.00184056 0 0.237077
0.574156 0.00558849 0 0.237094
0.574157 0.00947248 0 0.237119
0.574156 0.0134975 -3.46945e-18 0.237144
0.574156 0.0176687 -3.46945e-18 0.237159
0.574156 0.0219913 0 0.237164
0.574156 0.0264708 -3.46945e-18 0.237168
0.574156 0.031113 0 0.237174
0.574156 0.0359238 -3.46945e-18 0.237182
0.574157 0.0409092 0 0.237192
0.523729 0.239487 3.70071e-18 0.227232
0.574156 0.0460755 -3.46945e-18 0.237204
0.574156 0.0514295 0 0.23722
0.412065 0.403236 0 0.209711
0.574157 0.0569779 0 0.23724
0.574156 0.0627277 0 0.237261
0.574156 0.0686863 0 0.237276
0.219992 0.534986 0 0.191302
0.288433 0.501741 0 0.196562
0.574156 0.0748612 3.46945e-18 0.237259
0.574156 0.0812603 0 0.237192
0.467897 0.344091 0 0.217047
0.574156 0.0878917 3.46945e-18 0.237093
0.523729 0.251863 0 0.226798
0.574157 0.0947639 0 0.236981
0.574156 0.101886 0 0.23686
0.574156 0.109266 0 0.236728
0.574156 0.116914 0 0.236582
0.412065 0.416977 -6.16298e-33 0.209009
0.350249 0.470415 0 0.201505
0.523729 0.264688 0 0.226326
0.075776 0.582034 0 0.187236
0.574156 0.12484 0 0.236421
0.574156 0.133054 3.46945e-18 0.236245
0.412065 0.421557 -2.31298e-18 0.208776
0.151552 0.569849 0 0.188654
0.467897 0.360265 -3.46945e-18 0.216301
0.574157 0.141566 -3.46945e-18 0.236051
0.523729 0.27798 0 0.225812
0.574156 0.150386 3.46945e-18 0.235839
0 0.594219 0 0.186426
0.574156 0.159528 -3.46945e-18 0.235608
0.574156 0.16418 0 0.236144
0.288433 0.523639 1.2326e-32 0.195317
0.574157 0.169001 0 0.235354
0.523729 0.291753 0 0.225254
0.219993 0.558091 3.46945e-18 0.189962
0.467897 0.377026 0 0.215495
0.574156 0.178818 3.46945e-18 0.235078
0.412065 0.440544 -2.31298e-18 0.207769
0.350249 0.491175 0 0.200353
0.574156 0.188992 3.46945e-18 0.234776
0.523729 0.306027 -3.08149e-33 0.224648
0.574157 0.199535 0 0.234447
0.574157 0.21046 0 0.23409
0.075776 0.606847 0 0.185613
0.467897 0.394397 0 0.214625
0.151552 0.594219 0 0.187125
0.523729 0.320819 0 0.223992
0.574157 0.221782 -3.46945e-18 0.233701
0.412065 0.46022 3.08149e-33 0.206689
0.288433 0.546332 0 0.193986
0 0.619475 0 0.184766
0.574156 0.233515 3.46945e-18 0.233279
0.350249 0.51269 3.46945e-18 0.199121
0.219992 0.582034 3.46945e-18 0.188533
0.523729 0.336148 0 0.223282
0.467897 0.412396 0 0.213688
0.574156 0.245675 0 0.232822
0.624584 0 0 0.245104
0.624584 0.00368111 0 0.245112
0.624584 0.00749587 0 0.245133
0.624584 0.0114491 0 0.245157
0.624584 0.0155459 0 0.245176
0.624584 0.0197915 0 0.245181
0.624584 0.0241911 -2.31298e-18 0.245175
0.624584 0.0287506 0 0.245166
0.624584 0.0334755 0 0.245158
0.624584 0.038372 0 0.245152
0.624584 0.0434463 -2.31298e-18 0.245147
0.624584 0.0487048 0 0.245143
0.624584 0.0541543 0 0.245141
0.624584 0.0598016 0 0.24514
0.624584 0.0656539 0 0.245132
0.624584 0.0717187 0 0.245099
0.624584 0.0780037 0 0.245023
0.574157 0.258276 3.46945e-18 0.232326
0.624584 0.0845169 0 0.24491
0.523729 0.352034 0 0.222516
0.624584 0.0912666 0 0.244778
0.624584 0.0982613 0 0.244634
0.412065 0.48061 3.08149e-33 0.20553
0.624584 0.10551 0 0.244476
0.624584 0.113022 -2.31298e-18 0.244305
0.574156 0.271334 0 0.23179
0.624584 0.120806 0 0.244118
0.467897 0.431051 0 0.21268
0.075776 0.632561 -3.46945e-18 0.183915
0.624584 0.128874 0 0.243914
0.151552 0.619475 0 0.185512
0.288433 0.569849 0 0.192565
0.350249 0.534985 0 0.197802
0.624584 0.137234 -2.31298e-18 0.243692
0.523729 0.368496 0 0.22169
0.574156 0.284866 -3.46945e-18 0.231211
0.624584 0.145897 0 0.24345
0.467897 0.440544 0 0.212741
0.624584 0.154876 0 0.243188
0.219992 0.606847 -3.46945e-18 0.187012
0 0.645647 0 0.183026
0.624584 0.16418 -3.08149e-33 0.242904
0.574156 0.29889 -3.46945e-18 0.230585
0.624584 0.173822 0 0.242596
0.412065 0.501741 1.54074e-33 0.20429
0.467897 0.450382 -3.46945e-18 0.211598
0.523729 0.385557 0 0.2208
0.624584 0.183814 0 0.242262
0.624584 0.194169 0 0.241901
0.574156 0.313423 0 0.229911
0.624584 0.2049 0 0.24151
0.350249 0.558091 3.46945e-18 0.196394
0.288433 0.594219 0 0.19105
0.624584 0.21602 0 0.241088
0.523729 0.403236 0 0.219843
0.574156 0.328483 -3.46945e-18 0.229184
0.151552 0.645647 0 0.183811
0.467897 0.470415 3.46945e-18 0.210438
0.075776 0.659208 0 0.182134
0.624584 0.227544 0 0.240632
0.412065 0.523639 0 0.202963
0.523729 0.41545 3.08149e-33 0.219157
0.624584 0.239487 3.70071e-18 0.240141
0.574156 0.344091 0 0.228401
0.219992 0.632561 0 0.185396
0.67013 0.00184055 0 0.252641
0.67013 0.00558849 0 0.252656
0.67013 0.00947248 0 0.25268
0.67013 0.0134975 0 0.252705
0.67013 0.0176687 -3.46945e-18 0.252715
0.67013 0.0219913 0 0.252705
0.67013 0.0264708 3.46945e-18 0.252683
0.67013 0.0311131 0 0.252661
0.67013 0.0359237 0 0.25264
0.67013 0.0409092 -3.46945e-18 0.25262
0.67013 0.0460755 0 0.2526
0.67013 0.0514296 3.46945e-18 0.25258
0.523729 0.421557 -2.31298e-18 0.218815
0.67013 0.056978 0 0.252559
0 0.67277 0 0.181202
0.67013 0.0627277 0 0.252536
0.624584 0.251863 0 0.239612
0.67013 0.0686863 0 0.252495
0.67013 0.0748612 3.46945e-18 0.252409
0.67013 0.0812603 0 0.25228
0.67013 0.0878917 0 0.252128
0.67013 0.0947639 3.46945e-18 0.251965
0.574156 0.360265 0 0.227559
0.67013 0.101886 0 0.251787
0.523729 0.431051 0 0.218264
0.624584 0.264688 0 0.239042
0.467897 0.491175 0 0.209196
0.67013 0.109266 3.46945e-18 0.251594
0.350249 0.582034 0 0.194892
0.67013 0.116914 0 0.251384
0.67013 0.12484 0 0.251156
0.67013 0.133054 0 0.25091
0.288433 0.619475 0 0.189439
0.624584 0.27798 -3.08149e-33 0.238428
0.412065 0.546332 1.54074e-33 0.201546
0.523729 0.440544 -3.08149e-33 0.217713
0.67013 0.141566 3.46945e-18 0.250643
0.685312 0.0241911 -7.70372e-34 0.255985
0.685312 0.0434463 -7.70372e-34 0.255869
0.67013 0.150387 0 0.250355
0.574156 0.377026 -3.46945e-18 0.226654
0.67013 0.159528 0 0.250044
0.624584 0.291753 0 0.237769
0.151552 0.67277 0 0.182017
0.075776 0.686823 0 0.180266
0.67013 0.169001 0 0.249708
0.67013 0.178818 0 0.249346
0.467897 0.51269 0 0.207868
0.685312 0.113022 -7.70372e-34 0.254615
0.219992 0.659208 0 0.18368
0.624584 0.306027 0 0.237061
0.67013 0.188991 0 0.248956
0.574156 0.394397 3.46945e-18 0.225683
0.523729 0.46022 0 0.216532
0.685312 0.137234 -7.70372e-34 0.253854
0.67013 0.199535 -3.46945e-18 0.248537
0.350249 0.606847 0 0.193292
0 0.700877 0 0.179288
0.624584 0.320819 0 0.236301
0.67013 0.21046 0 0.248086
0.412065 0.569849 -2.31298e-18 0.200034
0.67013 0.221782 -3.46945e-18 0.247602
0.574157 0.412396 0 0.224641
0.288433 0.645647 0 0.187725
0.624584 0.336148 -3.08149e-33 0.235486
0.67013 0.233515 3.46945e-18 0.247081
0.467897 0.534986 0 0.206449
0.523729 0.48061 0 0.215268
0.624584 0.344091 0 0.235048
0.67013 0.245675 0 0.246523
0.715676 4.54095e-19 0 0.261358
0.715676 0.00368111 0 0.261365
0.715676 0.00749587 0 0.261385
0.715676 0.0114491 0 0.261409
0.715676 0.0155459 0 0.261426
0.715676 0.0197915 0 0.261419
0.715676 0.0241911 0 0.261391
0.715676 0.0287506 0 0.261352
0.715676 0.0334755 0 0.261313
0.715676 0.038372 0 0.261272
0.624584 0.352034 -2.31298e-18 0.234611
0.715676 0.0434463 0 0.26123
0.151552 0.700877 0 0.180124
0.715676 0.0487048 0 0.261187
0.715676 0.0541543 0 0.261143
0.574156 0.43105 0 0.223525
0.715676 0.0598016 0 0.261096
0.67013 0.258275 0 0.245924
0.715676 0.0656539 0 0.261035
0.715676 0.0717187 0 0.260939
0.075776 0.715441 0 0.178306
0.715676 0.0780037 0 0.260797
0.715676 0.0845169 0 0.260624
0.219992 0.686824 0 0.181861
0.715676 0.0912666 0 0.260435
0.715676 0.0982613 0 0.26023
0.67013 0.271334 -3.46945e-18 0.245281
0.350249 0.632561 -3.46945e-18 0.191589
0.412065 0.594219 3.08149e-33 0.198422
0.715676 0.10551 0 0.260009
0.715676 0.113022 0 0.25977
0.624584 0.368496 0 0.233674
0.523729 0.501741 0 0.213918
0.715676 0.120806 0 0.259512
0.715676 0.128874 0 0.259234
0.67013 0.284867 0 0.244594
0.467897 0.558091 3.46945e-18 0.204934
0.715676 0.137234 0 0.258935
0.574156 0.450382 0 0.22233
0 0.730005 0 0.177279
0.715676 0.145897 0 0.258614
0.288433 0.67277 0 0.185906
0.715676 0.154876 0 0.258268
0.67013 0.29889 0 0.243857
0.624584 0.385557 0 0.232671
0.715676 0.16418 -9.25187e-19 0.257898
0.715676 0.173822 0 0.2575
0.715676 0.183814 0 0.257074
0.67013 0.313423 0 0.243069
0.523729 0.523639 0 0.212475
0.715676 0.194169 0 0.256617
0.574156 0.470415 3.46945e-18 0.221052
0.624584 0.403236 0 0.231598
0.743101 0.0241911 -7.70372e-34 0.267203
0.412065 0.619475 3.08149e-33 0.196706
0.715676 0.2049 0 0.256128
0.151552 0.730005 0 0.178129
0.67013 0.328484 3.46945e-18 0.242226
0.350249 0.659208 0 0.189779
0.467897 0.582034 0 0.203319
0.715676 0.21602 0 0.255606
0.219992 0.715441 0 0.179935
0.075776 0.745097 -3.46945e-18 0.176247
0.715676 0.227544 0 0.255047
0.67013 0.344091 0 0.241325
0.624584 0.421557 0 0.230451
0.743101 0.128874 -7.70372e-34 0.264666
0.715676 0.239487 3.70071e-18 0.254449
0.574156 0.491175 0 0.219687
0.756814 0.00184055 0 0.269583
0.523729 0.546332 0 0.210936
0.756813 0.00558849 0 0.269597
0.756813 0.00947248 0 0.269621
0.756814 0.0134975 -3.46945e-18 0.269648
0.756814 0.0155459 0 0.270163
0.756814 0.0176687 0 0.269651
0.756814 0.0219913 0 0.269622
0.756814 0.0264709 0 0.269572
0.756814 0.031113 -3.46945e-18 0.269515
0.756813 0.0359238 -3.46945e-18 0.269457
0.288433 0.700877 0 0.183977
0.756814 0.0409092 -3.46945e-18 0.269395
0.756813 0.0460755 3.46945e-18 0.269332
0.756813 0.0514296 0 0.269267
0.715676 0.251863 0 0.253811
0.756813 0.0569779 0 0.2692
0.756814 0.0627277 -3.46945e-18 0.269127
0.756814 0.0686863 -3.46945e-18 0.269024
0 0.76019 0 0.175168
0.756814 0.0748612 0 0.26887
0.67013 0.360265 3.46945e-18 0.240362
0.756814 0.0812603 -3.46945e-18 0.268676
0.756814 0.0878917 -3.46945e-18 0.268464
0.756814 0.0947639 -3.46945e-18 0.268237
0.715676 0.264688 0 0.25313
0.756813 0.101886 0 0.267992
0.624584 0.440544 0 0.229225
0.756813 0.109266 3.46945e-18 0.267727
0.756813 0.116914 3.46945e-18 0.267443
0.412065 0.645647 0 0.19488
0.467897 0.606847 0 0.201598
0.756814 0.120806 0 0.267705
0.756813 0.12484 0 0.267138
0.715676 0.27798 0 0.252403
0.756814 0.133054 -3.46945e-18 0.266811
0.67013 0.377026 -3.46945e-18 0.239333
0.756814 0.137234 0 0.267035
0.574156 0.51269 0 0.21823
0.756813 0.141566 3.46945e-18 0.26646
0.685312 0.352034 -7.70372e-34 0.243524
0.743101 0.2049 -7.70372e-34 0.261285
0.350249 0.686824 0 0.187856
0.756814 0.150387 0 0.266085
0.756814 0.154876 0 0.266271
0.715676 0.291753 0 0.251628
0.756814 0.159528 -3.46945e-18 0.265684
0.523729 0.569849 0 0.209295
0.72743 0.264688 0 0.255256
0.756814 0.16418 0 0.265849
0.151552 0.76019 0 0.176026
0.756813 0.169001 3.46945e-18 0.265255
0.624584 0.46022 0 0.227916
0.219993 0.745097 0 0.177898
0.67013 0.394396 0 0.238235
0.756813 0.178818 -3.46945e-18 0.264796
0.715676 0.306027 0 0.250801
0.075776 0.775831 0 0.174084
0.756813 0.188991 0 0.264307
0.756814 0.199535 0 0.263785
0.715676 0.320819 0 0.24992
0.574156 0.534985 0 0.216675
0.288433 0.730005 0 0.181933
0.756813 0.21046 0 0.263229
0.467897 0.632561 0 0.199766
0.67013 0.412396 -3.46945e-18 0.237062
0.624584 0.48061 -3.08149e-33 0.226519
0.756814 0.221782 0 0.262636
0.412065 0.67277 3.08149e-33 0.192939
0.715676 0.336148 0 0.248981
0 0.791472 0 0.172951
0.756813 0.233516 3.46945e-18 0.262005
0.523729 0.594219 0 0.207546
0.624584 0.487654 1.54074e-33 0.226022
0.756814 0.245675 3.46945e-18 0.261333
0.350249 0.715441 3.46945e-18 0.185816
0.67013 0.43105 0 0.235812
0.715676 0.352034 -9.25187e-19 0.247981
0.797951 9.08189e-19 -3.08149e-33 0.278835
0.797951 0.00368111 2.31298e-18 0.278842
0.797951 0.00749587 2.31298e-18 0.278862
0.797951 0.0114491 2.31298e-18 0.278888
0.797951 0.0141803 7.70372e-34 0.278897
0.797951 0.0155459 0 0.278901
0.797951 0.0169611 7.70372e-34 0.278895
0.797951 0.0197915 2.31298e-18 0.278881
0.797951 0.0219913 0 0.278854
0.797951 0.0241911 3.08149e-33 0.278827
0.797951 0.0264709 0 0.27879
0.797951 0.0287506 -3.08149e-33 0.278753
0.797951 0.0334755 2.31298e-18 0.27867
0.797951 0.038372 2.31298e-18 0.278582
0.797951 0.0434463 2.31298e-18 0.278489
0.797951 0.0487048 0 0.278392
0.756813 0.258275 -3.46945e-18 0.260618
0.797951 0.0541543 2.31298e-18 0.278292
0.797951 0.0598016 2.31298e-18 0.278184
0.797951 0.0656539 2.31298e-18 0.278054
0.574156 0.55809 0 0.215017
0.624584 0.501741 0 0.225029
0.797951 0.0717187 2.31298e-18 0.27788
0.797951 0.0780037 -3.08149e-33 0.277662
0.797951 0.0845169 2.31298e-18 0.277416
0.797951 0.0912666 -3.08149e-33 0.277152
0.797951 0.0982613 2.31298e-18 0.276869
0.756813 0.271334 0 0.259857
0.797951 0.10551 2.31298e-18 0.276567
0.715676 0.368496 0 0.246916
0.151552 0.791472 0 0.17381
0.797951 0.113022 2.31298e-18 0.276243
0.219992 0.775831 3.46945e-18 0.175744
0.797951 0.118211 7.70372e-34 0.276012
0.770526 0.239487 1.54074e-33 0.264531
0.797951 0.120806 0 0.275897
0.67013 0.450382 3.46945e-18 0.234479
0.797951 0.128874 3.08149e-33 0.275528
0.467897 0.659208 0 0.197818
0.756813 0.284866 -3.46945e-18 0.259048
0.743101 0.320819 -7.70372e-34 0.254712
0.797951 0.137234 0 0.275136
0.797951 0.141566 0 0.274927
0.797951 0.145897 -9.25187e-19 0.274718
0.523729 0.619475 0 0.205685
0.075776 0.807681 0 0.171812
0.797951 0.150387 0 0.274495
0.797951 0.154876 0 0.274273
0.715676 0.385557 0 0.245781
0.412065 0.700877 3.08149e-33 0.190879
0.288433 0.76019 0 0.17977
0.756813 0.29889 0 0.258188
0.797951 0.16418 0 0.2738
0.624584 0.523639 0 0.223441
0.797951 0.167394 7.70372e-34 0.273633
0.797951 0.173822 2.31298e-18 0.273298
0.574156 0.582034 0 0.213251
0.67013 0.470415 0 0.233058
0.797951 0.183814 2.31298e-18 0.272765
0.756813 0.313423 -3.46945e-18 0.257274
0.797951 0.194169 -9.25187e-19 0.272199
0.715676 0.403236 0 0.244574
0.151552 0.807681 0 0.172643
0.797951 0.197746 -7.70372e-34 0.271999
0.350249 0.745097 0 0.183653
0.797951 0.2049 3.08149e-33 0.271598
0 0.823889 0 0.170621
0.756813 0.328483 -3.46945e-18 0.256303
0.797951 0.21046 0 0.27128
0.797951 0.21602 -3.08149e-33 0.270962
0.797951 0.223703 7.70372e-34 0.270512
0.797951 0.227544 9.25187e-19 0.270287
0.624584 0.546332 0 0.22175
0.715676 0.421557 0 0.243288
0.67013 0.491176 -3.46945e-18 0.231544
0.797951 0.231525 7.70372e-34 0.270048
0.467897 0.686824 -3.46945e-18 0.195748
0.523729 0.645647 0 0.203705
0.756813 0.344091 -3.46945e-18 0.255271
0.822721 0.120806 7.70372e-34 0.281538
0.797951 0.239487 -3.08149e-33 0.269571
0.822721 0.137234 7.70372e-34 0.280707
0.835106 0.00184056 0 0.287609
0.835106 0.00558849 0 0.287625
0.835106 0.00947248 0 0.287651
0.835106 0.0134975 0 0.287678
0.835107 0.0176687 0 0.287674
0.835106 0.0219913 -3.46945e-18 0.287624
0.574156 0.606847 3.46945e-18 0.211371
0.835106 0.0241911 0 0.287909
0.835106 0.0264709 -3.46945e-18 0.28754
0.822721 0.145897 -7.70372e-34 0.280253
0.835106 0.031113 3.46945e-18 0.287437
0.835106 0.0359238 3.46945e-18 0.287325
0.835106 0.0409092 -3.46945e-18 0.287206
0.835106 0.0460755 3.46945e-18 0.287081
0.835106 0.0514296 0 0.286951
0.797951 0.251863 -3.08149e-33 0.268813
0.835106 0.0541543 0 0.287197
0.835106 0.0569779 0 0.286816
0.219992 0.807681 3.46945e-18 0.17347
0.822721 0.154876 7.70372e-34 0.279771
0.835106 0.0627277 0 0.286666
0.151552 0.823889 0 0.171477
0.797951 0.255069 -1.54074e-33 0.268613
0.835106 0.0686863 3.46945e-18 0.286475
0.756814 0.360265 -3.46945e-18 0.254175
0.412065 0.730005 0 0.188693
0.835106 0.0748612 0 0.286233
0.822721 0.16418 7.70372e-34 0.27926
0.835106 0.0812603 0 0.285955
0.835106 0.0878917 -3.46945e-18 0.285659
0.715676 0.440544 0 0.241921
0.835106 0.094764 0 0.285343
0.797951 0.264688 -1.2326e-32 0.268011
0.835106 0.101886 -3.46945e-18 0.285006
0.835106 0.109266 3.46945e-18 0.284646
0.288433 0.791472 0 0.177482
0.835106 0.116914 0 0.284264
0.67013 0.51269 3.46945e-18 0.229933
0.797951 0.274657 6.16298e-33 0.267373
0.075776 0.840686 -3.46945e-18 0.169424
0.835106 0.12484 0 0.283858
0.797951 0.27798 -3.08149e-33 0.26716
0.624584 0.569849 0 0.219948
0.756813 0.377026 -3.46945e-18 0.25301
0.835106 0.133054 3.46945e-18 0.283427
0.835106 0.141565 3.46945e-18 0.282971
0.835106 0.150386 0 0.282487
0.797951 0.291753 0 0.26626
0.835106 0.159528 3.46945e-18 0.281975
0.715676 0.46022 0 0.240465
0.816529 0.239487 -1.54074e-33 0.273454