# UMean  POINT_DATA 63840
# x  y  z  UMean_x  UMean_y  UMean_z
0 0.5 3.39583e-17 1 0 0
0 0.5 -0.00617931 1 0 0
0 0.5 0.00617931 1 0 0
0.0124865 0.5 -0.00617931 0.999964 0.000943176 -5.90024e-05
0.0124865 0.5 0.00617931 0.999964 0.000943162 6.18327e-05
0 0.5 -0.0688207 1 0 0
0 0.5 0.0688207 1 0 0
0.0124865 0.5 -0.0688207 0.999964 0.000943176 -5.90024e-05
0.0124865 0.5 0.0688207 0.999964 0.000943162 6.18327e-05
0 0.5 -0.075 1 0 0
0 0.5 0.075 1 0 0
0 0.5 -0.0811793 1 0 0
0 0.5 0.0811793 1 0 0
0.0124865 0.5 -0.0811793 0.999962 0.000939795 -0.000186872
0.0124865 0.5 0.0811793 0.999962 0.000939718 0.00018979
0.075776 0.5 -0.0375 0.999757 0.00571834 -0.000356011
0.075776 0.5 0.0375 0.999756 0.00571825 0.000373121
0.075776 0.5 -0.1125 0.999743 0.00569764 -0.00112812
0.075776 0.5 0.1125 0.999742 0.00569717 0.00114576
0 0.5 -0.143821 1 0 0
0 0.5 0.143821 1 0 0
0.0124865 0.5 -0.143821 0.999962 0.000939795 -0.000186872
0.0124865 0.5 0.143821 0.999962 0.000939718 0.00018979
0 0.5 -0.15 1 0 0
0 0.5 0.15 1 0 0
0.151149 0.5 -0.00137318 0.99851 0.00960406 6.27637e-05
0 0.5 -0.156179 1 0 0
0 0.5 0.156179 1 0 0
0.0124865 0.5 -0.156179 0.999964 0.000932434 -0.000309501
0.0124865 0.5 0.156179 0.999964 0.000932302 0.000312381
0.151149 0.5 0.075 0.9985 0.00961366 0.00135943
0.151149 0.5 -0.075 0.9985 0.0096141 -0.001328
0.075776 0.5 -0.1875 0.999758 0.00565305 -0.00186879
0.075776 0.5 0.1875 0.999758 0.00565225 0.00188621
0.151149 0.5 0.15 0.998524 0.00955956 0.00268851
0.151149 0.5 -0.15 0.998524 0.00956048 -0.00265726
0 0.5 -0.218821 1 0 0
0 0.5 0.218821 1 0 0
0.0124865 0.5 -0.218821 0.999964 0.000932434 -0.000309501
0.0124865 0.5 0.218821 0.999964 0.000932302 0.000312381
0.219992 0.5 0.0375 0.997328 0.013289 0.000983015
0.219993 0.5 -0.0375 0.997329 0.0132893 -0.00093815
0 0.5 -0.225 1 0 0
0 0.5 0.225 1 0 0
0 0.5 -0.231179 1 0 0
0 0.5 0.231179 1 0 0
0.0124865 0.5 -0.231179 0.999967 0.000921617 -0.00042767
0.0124865 0.5 0.231179 0.999967 0.00092144 0.000430509
0.219992 0.5 0.1125 0.997339 0.0132385 0.00285808
0.219993 0.5 -0.1125 0.997339 0.0132394 -0.0028138
0.151149 0.5 -0.225 0.998581 0.00947275 -0.00394834
0.151149 0.5 0.225 0.998582 0.00947138 0.00397916
0.075776 0.5 -0.2625 0.999774 0.00558744 -0.00258302
0.075776 0.5 0.2625 0.999774 0.00558636 0.00260021
0.288069 0.5 -0.00137318 0.994323 0.0168888 0.000116278
0.219992 0.5 0.1875 0.997419 0.0131414 0.00471208
0.219993 0.5 -0.1875 0.997418 0.0131429 -0.00466822
0 0.5 0.293821 1 0 0
0 0.5 -0.293821 1 0 0
0.0124865 0.5 -0.293821 0.999967 0.000921617 -0.00042767
0.0124865 0.5 0.293821 0.999967 0.00092144 0.000430509
0.288069 0.5 -0.075 0.994327 0.0168818 -0.00247542
0.288069 0.5 0.075 0.994327 0.0168811 0.00253366
0 0.5 -0.3 1 0 0
0 0.5 0.3 1 0 0
0 0.5 0.306179 1 0 0
0 0.5 -0.306179 1 0 0
0.0124865 0.5 -0.306179 0.999971 0.000907788 -0.000539167
0.0124865 0.5 0.306179 0.999971 0.000907562 0.000541927
0.288069 0.5 -0.15 0.994426 0.0167851 -0.00493705
0.288069 0.5 0.15 0.994427 0.0167836 0.00499473
0.151149 0.5 -0.3 0.998658 0.00935358 -0.0051814
0.151149 0.5 0.3 0.998659 0.00935177 0.00521156
0.219992 0.5 -0.2625 0.997533 0.013003 -0.00645019
0.219992 0.5 0.2625 0.997534 0.0130009 0.00649323
0.075776 0.5 0.3375 0.999795 0.00550206 0.00327409
0.075776 0.5 -0.3375 0.999795 0.00550343 -0.00325736
0.350249 0.5 -0.0375 0.991464 0.0203109 -0.00151267
0.350249 0.5 0.0375 0.991464 0.0203105 0.00158408
0.288069 0.5 -0.225 0.994609 0.0166284 -0.00733229
0.288069 0.5 0.225 0.994611 0.0166261 0.0073891
0.350249 0.5 0.1125 0.991554 0.0202291 0.00463403
0.350249 0.5 -0.1125 0.991553 0.0202304 -0.0045633
0 0.5 0.368821 1 0 0
0 0.5 -0.368821 1 0 0
0.0124865 0.5 -0.368821 0.999971 0.000907788 -0.000539167
0.0124865 0.5 0.368821 0.999971 0.000907562 0.000541927
0 0.5 -0.375 1 0 0
0 0.5 0.375 1 0 0
0 0.5 -0.381179 1 0 0
0 0.5 0.381179 1 0 0
0.0124865 0.5 -0.381179 0.999975 0.000891143 -0.000643011
0.0124865 0.5 0.381179 0.999975 0.000890877 0.00064568
0.350249 0.5 -0.1875 0.991763 0.0200735 -0.00755571
0.350249 0.5 0.1875 0.991766 0.0200712 0.00762589
0.219992 0.5 -0.3375 0.997681 0.0128216 -0.00814204
0.219992 0.5 0.3375 0.997683 0.012819 0.00818401
0.151149 0.5 -0.375 0.998754 0.00920521 -0.0063415
0.151149 0.5 0.375 0.998755 0.00920299 0.0063708
0.411736 0.5 -0.00137318 0.987183 0.0238112 0.000169955
0.288069 0.5 -0.3 0.994862 0.0164158 -0.0096201
0.288069 0.5 0.3 0.994865 0.0164128 0.00967561
0.411736 0.5 -0.075 0.987223 0.0237867 -0.0036606
0.411736 0.5 0.075 0.987225 0.0237856 0.0037449
0.075776 0.5 -0.4125 0.999821 0.00540234 -0.00388575
0.075776 0.5 0.4125 0.999821 0.00540074 0.00390192
0.350249 0.5 -0.2625 0.992082 0.0198449 -0.0104369
0.350249 0.5 0.2625 0.992085 0.0198416 0.0105054
0.411736 0.5 -0.15 0.987449 0.0236396 -0.00730192
0.411736 0.5 0.15 0.987452 0.0236374 0.00738538
0 0.5 -0.443821 1 0 0
0 0.5 0.443821 1 0 0
0.0124865 0.5 -0.443821 0.999975 0.000891143 -0.000643011
0.0124865 0.5 0.443821 0.999975 0.000890877 0.00064568
0 0.5 -0.45 1 0 0
0 0.5 0.45 1 0 0
0 0.5 -0.456179 1 0 0
0 0.5 0.456179 1 0 0
0.0124865 0.5 -0.456179 0.99998 0.000872001 -0.000738017
0.0124865 0.5 0.456179 0.99998 0.000871699 0.000740578
0.219992 0.5 -0.4125 0.99786 0.012602 -0.00972187
0.219993 0.5 0.4125 0.997862 0.0125988 0.00976256
0.411736 0.5 -0.225 0.987836 0.0234002 -0.0108345
0.411736 0.5 0.225 0.987841 0.0233968 0.0109166
0.467897 0.5 0.0375 0.983095 0.0271474 0.0022085
0.467897 0.5 -0.0375 0.983094 0.0271482 -0.00211134
0.288069 0.5 -0.375 0.995178 0.0161512 -0.0117718
0.288069 0.5 0.375 0.995182 0.0161475 0.0118258
0.151149 0.5 -0.45 0.998867 0.00902995 -0.00741532
0.151149 0.5 0.45 0.998869 0.00902733 0.0074436
0.467897 0.5 -0.1125 0.983288 0.0270305 -0.00638292
0.467897 0.5 0.1125 0.98329 0.0270285 0.00647928
0.350249 0.5 0.3375 0.992503 0.019547 0.0132322
0.350249 0.5 -0.3375 0.992498 0.019551 -0.0131653
0.075776 0.5 -0.4875 0.999852 0.00528606 -0.00446092
0.075776 0.5 0.4875 0.999852 0.00528423 0.00447644
0.467897 0.5 -0.1875 0.983688 0.0268005 -0.0105617
0.467897 0.5 0.1875 0.983693 0.0267972 0.0106568
0.411736 0.5 -0.3 0.988372 0.0230751 -0.0142031
0.411736 0.5 0.3 0.988379 0.0230707 0.0142834
0 0.5 -0.518821 1 0 0
0 0.5 0.518821 1 0 0
0.0124865 0.5 0.518821 0.99998 0.000871699 0.000740578
0.0124865 0.5 -0.518821 0.99998 0.000872001 -0.000738017
0.523432 0.5 -0.00137318 0.977829 0.0306233 0.000225023
0 0.5 -0.525 1 0 0
0 0.5 0.525 1 0 0
0.523432 0.5 -0.075 0.977919 0.0305793 -0.00489514
0.523432 0.5 0.075 0.977922 0.0305778 0.00500482
0 0.5 -0.531179 1 0 0
0 0.5 0.531179 1 0 0
0.0124865 0.5 -0.531179 0.999986 0.000850749 -0.000823354
0.0124865 0.5 0.531179 0.999986 0.00085042 0.000825793
0.288069 0.5 -0.45 0.99555 0.0158384 -0.013762
0.288069 0.5 0.45 0.995555 0.015834 0.0138141
0.219992 0.5 -0.4875 0.998066 0.0123467 -0.0111725
0.219993 0.5 0.4875 0.998068 0.012343 0.0112117
0.467897 0.5 -0.2625 0.984292 0.0264639 -0.0145705
0.467897 0.5 0.2625 0.984299 0.0264594 0.0146639
0.350249 0.5 -0.4125 0.993 0.0191956 -0.0157086
0.350249 0.5 0.4125 0.993006 0.0191907 0.0157734
0.523432 0.5 -0.15 0.978312 0.0303742 -0.00976267
0.523432 0.5 0.15 0.978317 0.0303711 0.00987117
0.151149 0.5 -0.525 0.998995 0.00883015 -0.00839165
0.151149 0.5 0.525 0.998997 0.00882716 0.00841874
0.411736 0.5 -0.375 0.989043 0.0226716 -0.0173634
0.411736 0.5 0.375 0.989051 0.0226662 0.0174415
0.075776 0.5 -0.5625 0.999887 0.00515683 -0.00497768
0.075776 0.5 0.5625 0.999887 0.00515482 0.00499247
0.523432 0.5 -0.225 0.978969 0.0300394 -0.014474
0.523432 0.5 0.225 0.978977 0.0300349 0.0145808
0.574156 0.5 -0.0375 0.972777 0.0339466 -0.00273721
0.574156 0.5 0.0375 0.972778 0.0339457 0.00285949
0.467897 0.5 0.3375 0.985089 0.0260247 0.0184522
0.467897 0.5 -0.3375 0.98508 0.0260305 -0.0183612
0.574156 0.5 -0.1125 0.973097 0.0337881 -0.00827901
0.574156 0.5 0.1125 0.973102 0.0337855 0.00840051
0 0.5 -0.593821 1 0 0
0 0.5 0.593821 1 0 0
0.0124865 0.5 -0.593821 0.999986 0.000850749 -0.000823354
0.0124865 0.5 0.593821 0.999986 0.00085042 0.000825793
0.288069 0.5 -0.525 0.995968 0.0154814 -0.0155692
0.288069 0.5 0.525 0.995974 0.0154763 0.0156192
0 0.5 -0.6 1 0 0
0 0.5 0.6 1 0 0
0.350249 0.5 -0.4875 0.993577 0.0187841 -0.0180369
0.350249 0.5 0.4875 0.993584 0.0187784 0.0180993
0.523432 0.5 -0.3 0.979877 0.0295841 -0.0189553
0.523432 0.5 0.3 0.979888 0.0295782 0.0190597
0.219992 0.5 -0.5625 0.998294 0.0120584 -0.0124794
0.219992 0.5 0.5625 0.998297 0.0120542 0.0125168
0.574156 0.5 -0.1875 0.973743 0.0334772 -0.0136874
0.574156 0.5 0.1875 0.973751 0.0334727 0.0138071
0 0.5 -0.606179 1 0 0
0 0.5 0.606179 1 0 0
0.0124865 0.5 -0.606179 0.999993 0.000827821 -0.000898338
0.0124865 0.5 0.606179 0.999993 0.000827459 0.000900644
0.411736 0.5 -0.45 0.98983 0.0221961 -0.0202761
0.411736 0.5 0.45 0.989839 0.0221897 0.0203514
0.151149 0.5 -0.6 0.999135 0.00860858 -0.00926151
0.151149 0.5 0.6 0.999137 0.00860527 0.00928726
0.62168 0.5 2.64545e-17 0.967048 0.0372503 0.0003259
0.467897 0.5 0.4125 0.986042 0.0255017 0.0219674
0.467897 0.5 -0.4125 0.986031 0.0255085 -0.0218793
0.624316 0.5 0.0729402 0.96688 0.0373672 0.00631806
0.624316 0.5 -0.075 0.966877 0.0373691 -0.00618368
0.574156 0.5 -0.2625 0.974705 0.0330217 -0.01887
0.574157 0.5 0.2625 0.974717 0.0330158 0.0189876
0.075776 0.5 -0.6375 0.999928 0.00501697 -0.00543192
0.075776 0.5 0.6375 0.999928 0.00501476 0.0054459
0.624316 0.5 -0.15 0.967474 0.037101 -0.0123267
0.624316 0.5 0.15 0.967481 0.0370972 0.0124596
0.523432 0.5 -0.375 0.98101 0.0290193 -0.023145
0.523432 0.5 0.375 0.981023 0.029012 0.0232464
0.350249 0.5 -0.5625 0.994215 0.018322 -0.0201271
0.350249 0.5 0.5625 0.994223 0.0183156 0.0201867
0.624316 0.5 -0.225 0.968465 0.0366631 -0.0182624
0.624316 0.5 0.225 0.968477 0.0366574 0.0183932
0.288069 0.5 0.6 0.996429 0.0150792 0.0172242
0.288069 0.5 -0.6 0.996423 0.0150849 -0.0171767
0.574156 0.5 -0.3375 0.97596 0.0324339 -0.0237503
0.574156 0.5 0.3375 0.975974 0.0324264 0.0238647
0.411736 0.5 -0.525 0.990714 0.021656 -0.0229096
0.411736 0.5 0.525 0.990726 0.0216486 0.0229818
0 0.5 -0.668821 1 0 0
0 0.5 0.668821 1 0 0
0.0124865 0.5 -0.668821 0.999993 0.000827821 -0.000898338
0.0124865 0.5 0.668821 0.999993 0.000827459 0.000900644
0.67013 0.5 0.0375 0.96089 0.0407791 0.00353904
0.67013 0.5 -0.0375 0.960888 0.0407803 -0.00339226
0.219993 0.5 -0.6375 0.998537 0.011741 -0.0136311
0.219993 0.5 0.6375 0.99854 0.0117364 0.0136665
0 0.5 -0.675 1 0 0
0 0.5 0.675 1 0 0
0.467897 0.5 0.4875 0.987134 0.0248988 0.0251696
0.467897 0.5 -0.4875 0.98712 0.0249067 -0.0250849
0.67013 0.5 -0.1125 0.961359 0.0405783 -0.0102587
0.67013 0.5 0.1125 0.961365 0.0405751 0.0104044
0 0.5 -0.681179 1 0 0
0 0.5 0.681179 1 0 0
0.0124865 0.5 -0.681179 1 0.000803545 -0.000962588
0.0124865 0.5 0.681179 1 0.000803164 0.000964749
0.523432 0.5 -0.45 0.982336 0.0283557 -0.026989
0.523432 0.5 0.45 0.982352 0.0283471 0.0270868
0.151149 0.5 -0.675 0.999284 0.00836854 -0.0100186
0.151149 0.5 0.675 0.999286 0.00836491 0.0100429
0.624316 0.5 -0.3 0.969826 0.0360665 -0.0238914
0.624316 0.5 0.3 0.969842 0.0360592 0.0240193
0.67013 0.5 0.1875 0.962311 0.0401757 0.0170909
0.67013 0.5 -0.1875 0.9623 0.0401809 -0.0169473
0.574156 0.5 -0.4125 0.977469 0.0317278 -0.028262
0.574157 0.5 0.4125 0.977487 0.0317189 0.0283727
0.708171 0.5 1.88651e-17 0.95529 0.0437445 0.000651416
0.075776 0.5 -0.7125 0.999971 0.00486875 -0.00582145
0.075776 0.5 0.7125 0.999972 0.00486642 0.00583455
0.715434 0.5 0.0736268 0.954637 0.0441169 0.00786327
0.715434 0.5 -0.075 0.954484 0.0441947 -0.00752998
0.67013 0.5 0.2625 0.963712 0.0395917 0.0234878
0.67013 0.5 -0.2625 0.963696 0.0395987 -0.0233468
0.350249 0.5 -0.6375 0.994897 0.0178158 -0.0219617
0.350249 0.5 0.6375 0.994907 0.0178086 0.0220181
0.411736 0.5 -0.6 0.991674 0.0210589 -0.0252399
0.411736 0.5 0.6 0.991687 0.0210507 0.0253085
0.624316 0.5 -0.375 0.971519 0.035326 -0.0291368
0.624316 0.5 0.375 0.971539 0.035317 0.0292608
0.715434 0.5 -0.15 0.95532 0.0438596 -0.0150033
0.715434 0.5 0.15 0.955331 0.0438551 0.01516
0.467897 0.5 -0.5625 0.988321 0.0242341 -0.0279457
0.467897 0.5 0.5625 0.988337 0.0242251 0.0280265
0.288069 0.5 -0.675 0.996903 0.0146545 -0.0185726
0.288069 0.5 0.675 0.99691 0.0146482 0.0186174
0.523432 0.5 -0.525 0.983822 0.027604 -0.030445
0.523432 0.5 0.525 0.983841 0.0275942 0.0305386
0 0.5 -0.743821 1 0 0
0 0.5 0.743821 1 0 0
0.0124865 0.5 -0.743821 1 0.000803545 -0.000962588
0.0124865 0.5 0.743821 1 0.000803164 0.000964749
0.219992 0.5 0.7125 0.998794 0.0113938 0.0146537
0.219992 0.5 -0.7125 0.998791 0.011399 -0.0146205
0.715434 0.5 -0.225 0.956702 0.0433117 -0.0222115
0.715434 0.5 0.225 0.956718 0.043305 0.0223656
0 0.5 -0.75 1 0 0
0 0.5 0.75 1 0 0
0.67013 0.5 0.3375 0.965524 0.038837 0.0294778
0.67013 0.5 -0.3375 0.965503 0.038846 -0.0293406
0.574156 0.5 -0.4875 0.979191 0.0309148 -0.0323506
0.574156 0.5 0.4875 0.979212 0.0309044 0.032457
0 0.5 -0.756179 1 0 0
0 0.5 0.756179 1 0 0
0.0124865 0.5 -0.756179 1.00001 0.000778368 -0.00101596
0.0124865 0.5 0.756179 1.00001 0.000777966 0.00101797
0.756813 0.5 -0.0375 0.947829 0.0476538 -0.00407794
0.756813 0.5 0.0375 0.947832 0.0476525 0.0042487
0.151149 0.5 -0.75 0.999438 0.00811366 -0.0106595
0.151149 0.5 0.75 0.999441 0.00810976 0.0106821
0.756813 0.5 -0.1125 0.948473 0.0474055 -0.0123267
0.756813 0.5 0.1125 0.948482 0.0474018 0.0124961
0.624316 0.5 -0.45 0.973497 0.0344569 -0.0339292
0.624316 0.5 0.45 0.97352 0.0344462 0.0340488
0.715434 0.5 -0.3 0.958593 0.042565 -0.0290331
0.715434 0.5 0.3 0.958614 0.0425562 0.0291838
0.756813 0.5 0.1875 0.949767 0.0469104 0.0205197
0.756813 0.5 -0.1875 0.949752 0.0469166 -0.0203527
0.67013 0.5 -0.4125 0.967671 0.0379407 -0.0348813
0.67013 0.5 0.4125 0.967697 0.03793 0.0350141
0.411736 0.5 -0.675 0.992686 0.0204137 -0.0272505
0.411736 0.5 0.675 0.9927 0.0204045 0.0273152
0.467897 0.5 0.6375 0.989621 0.0234906 0.030515
0.467897 0.5 -0.6375 0.989604 0.0235006 -0.0304384
0.075776 0.5 -0.7875 1.00002 0.00471469 -0.00614518
0.075776 0.5 0.7875 1.00002 0.00471223 0.00615735
0.350249 0.5 -0.7125 0.99561 0.0172728 -0.0235297
0.350249 0.5 0.7125 0.99562 0.0172648 0.0235826
0.523432 0.5 -0.6 0.98543 0.0267762 -0.033481
0.523432 0.5 0.6 0.985451 0.0267652 0.03357
0.797732 0.5 2.68882e-17 0.940712 0.0511781 9.13206e-05
0.756813 0.5 -0.2625 0.951645 0.0461991 -0.0280106
0.756814 0.5 0.2625 0.951667 0.0461907 0.0281744
0.797732 0.5 0.0736268 0.941165 0.0510051 0.00941657
0.797732 0.5 -0.075 0.941081 0.0510423 -0.00893417
0.288069 0.5 -0.75 0.997398 0.0141966 -0.0197507
0.288069 0.5 0.75 0.997405 0.0141898 0.0197926
0.574156 0.5 -0.5625 0.981084 0.0300087 -0.0359735
0.574157 0.5 0.5625 0.981109 0.029997 0.0360749
0.715434 0.5 -0.375 0.960935 0.0416372 -0.0353638
0.715434 0.5 0.375 0.960962 0.0416264 0.03551
0.797732 0.5 -0.15 0.942188 0.0506369 -0.0177928
0.797732 0.5 0.15 0.942201 0.0506317 0.0179728
0.624316 0.5 -0.525 0.975706 0.0334744 -0.0382076
0.624316 0.5 0.525 0.975733 0.0334621 0.038322
0.219992 0.5 -0.7875 0.999049 0.0110375 -0.0154444
0.219992 0.5 0.7875 0.999052 0.011032 0.0154753
0 0.5 -0.818821 1 0 0
0 0.5 0.818821 1 0 0
0.0124865 0.5 0.818821 1.00001 0.000777966 0.00101797
0.0124865 0.5 -0.818821 1.00001 0.000778368 -0.00101596
0 0.5 -0.825 1 0 0
0 0.5 0.825 1 0 0
0.756813 0.5 0.3375 0.954111 0.045262 0.0353486
0.756814 0.5 -0.3375 0.954084 0.0452725 -0.0351889
0.67013 0.5 -0.4875 0.970145 0.0369004 -0.0398607
0.67013 0.5 0.4875 0.970175 0.0368879 0.0399882
0.797732 0.5 -0.225 0.944012 0.0499732 -0.0263218
0.797732 0.5 0.225 0.944033 0.0499655 0.0264988
0 0.5 -0.831179 1 0 0
0 0.5 0.831179 1 0 0
0.0124865 0.5 -0.831179 1.00002 0.000752606 -0.00105858
0.0124865 0.5 0.831179 1.00002 0.000752186 0.00106042
0.835106 0.5 0.0375 0.933892 0.054534 0.00498697
0.835106 0.5 -0.0375 0.933888 0.0545353 -0.00479295
0.151149 0.5 -0.825 0.999595 0.00784789 -0.0111835
0.151149 0.5 0.825 0.999597 0.00784376 0.0112044
0.835106 0.5 0.1125 0.934735 0.0542346 0.0146713
0.835106 0.5 -0.1125 0.934724 0.0542388 -0.0144787
0.715434 0.5 -0.45 0.963669 0.0405481 -0.041115
0.715434 0.5 0.45 0.963701 0.0405353 0.0412559
0.797732 0.5 -0.3 0.946502 0.0490685 -0.0343781
0.797732 0.5 0.3 0.94653 0.0490583 0.0345511
0.467897 0.5 0.7125 0.990958 0.022706 0.0326215
0.467897 0.5 -0.7125 0.990939 0.022717 -0.0325498
0.523432 0.5 -0.675 0.987121 0.0258848 -0.0360771
0.523432 0.5 0.675 0.987144 0.0258726 0.0361609
0.411736 0.5 -0.75 0.993728 0.0197298 -0.0289336
0.411736 0.5 0.75 0.993743 0.0197198 0.028994
0.835106 0.5 -0.1875 0.936382 0.0536544 -0.0238933
0.835106 0.5 0.1875 0.936401 0.0536475 0.0240832
0.574156 0.5 -0.6375 0.9831 0.029024 -0.0391024
0.574157 0.5 0.6375 0.983127 0.0290109 0.0391983
0.350249 0.5 -0.7875 0.996335 0.0167013 -0.0248273
0.350249 0.5 0.7875 0.996346 0.0166927 0.0248764
0.756813 0.5 -0.4125 0.957007 0.0441559 -0.0417472
0.756814 0.5 0.4125 0.957041 0.0441432 0.0419015
0.075776 0.5 -0.8625 1.00007 0.00455706 -0.00640376
0.075776 0.5 0.8625 1.00007 0.00455448 0.00641495
0.624316 0.5 0.6 0.97812 0.0323811 0.0420443
0.624316 0.5 -0.6 0.978089 0.0323949 -0.0419357
0.872064 0.5 5.91974e-17 0.92658 0.0579822 0.000102774
0.870122 0.5 0.075 0.927538 0.0576006 0.0109741
0.288069 0.5 -0.825 0.997898 0.0137181 -0.0207101
0.288069 0.5 0.825 0.997905 0.0137108 0.0207487
0.67013 0.5 -0.5625 0.972854 0.0357429 -0.0442411
0.67013 0.5 0.5625 0.972888 0.0357286 0.0443625
0.872064 0.5 -0.075 0.927048 0.0578223 -0.0103849
0.835106 0.5 -0.2625 0.938828 0.052796 -0.032854
0.835106 0.5 0.2625 0.938856 0.0527865 0.0330402
0.797732 0.5 -0.375 0.949582 0.0479438 -0.0418179
0.797732 0.5 0.375 0.949616 0.0479313 0.0419858
0.872064 0.5 0.14794 0.928468 0.0573395 0.0208751
0.872064 0.5 -0.15 0.928451 0.0573453 -0.0206724
0.715434 0.5 -0.525 0.966715 0.0393184 -0.0462174
0.715434 0.5 0.525 0.966752 0.0393037 0.046352
0.219992 0.5 0.8625 0.999312 0.0106563 0.0161323
0.219993 0.5 -0.8625 0.999308 0.0106621 -0.0161039
0 0.5 -0.893821 1 0 0
0 0.5 0.893821 1 0 0
0.0124865 0.5 -0.893821 1.00002 0.000752606 -0.00105858
0.0124865 0.5 0.893821 1.00002 0.000752186 0.00106042
0 0.5 -0.9 1 0 0
0 0.5 0.9 1 0 0
0.756813 0.5 -0.4875 0.960338 0.0428733 -0.047629
0.756813 0.5 0.4875 0.960377 0.0428584 0.047777
0.872064 0.5 -0.225 0.930756 0.0565638 -0.0305632
0.872064 0.5 0.225 0.930782 0.0565551 0.0307624
0.835106 0.5 -0.3375 0.941984 0.051687 -0.0412297
0.835106 0.5 0.3375 0.942019 0.0516748 0.0414112
0 0.5 0.906179 1 0 0
0 0.5 -0.906179 1 0 0
0.0124865 0.5 -0.906179 1.00002 0.000726681 -0.0010907
0.0124865 0.5 0.906179 1.00002 0.00072625 0.00109237
0.90582 0.5 -0.0375 0.919541 0.0612777 -0.00552687
0.90582 0.5 0.0375 0.919545 0.0612763 0.0057435
0.151149 0.5 -0.9 0.999751 0.00757532 -0.0115925
0.151149 0.5 0.9 0.999753 0.007571 0.0116117
0.90582 0.5 -0.1125 0.920582 0.0609331 -0.0166858
0.905821 0.5 0.1125 0.920596 0.0609286 0.016901
0.523432 0.5 -0.75 0.988855 0.0249434 -0.0382249
0.523432 0.5 0.75 0.98888 0.0249301 0.038303
0.574156 0.5 -0.7125 0.985188 0.0279757 -0.041722
0.574156 0.5 0.7125 0.985218 0.0279613 0.0418117
0.797732 0.5 -0.45 0.953165 0.0466229 -0.0485382
0.797732 0.5 0.45 0.953207 0.046608 0.0486998
0.467897 0.5 0.7875 0.992316 0.0218831 0.0343428
0.467897 0.5 -0.7875 0.992295 0.021895 -0.0342762
0.624316 0.5 -0.675 0.980586 0.031236 -0.0450898
0.624316 0.5 0.675 0.98062 0.0312206 0.0451918
0.411736 0.5 -0.825 0.994777 0.0190172 -0.0302896
0.411736 0.5 0.825 0.994794 0.0190066 0.0303454
0.872064 0.5 0.3 0.933938 0.055486 0.0400759
0.872064 0.5 -0.3 0.933903 0.0554975 -0.0398811
0.67013 0.5 -0.6375 0.975726 0.0344879 -0.0479863
0.67013 0.5 0.6375 0.975764 0.0344718 0.0481009
0.90582 0.5 0.1875 0.922668 0.0602459 0.0277345
0.905821 0.5 -0.1875 0.922645 0.0602536 -0.0275223
0.350249 0.5 -0.8625 0.997062 0.0161096 -0.0258569
0.350249 0.5 0.8625 0.997074 0.0161005 0.0259021
0.835106 0.5 -0.4125 0.945751 0.0503503 -0.0488295
0.835106 0.5 0.4125 0.945793 0.0503355 0.0490047
0.715434 0.5 -0.6 0.969989 0.0379697 -0.0506242
0.715434 0.5 0.6 0.97003 0.037953 0.0507517
0.939201 0.5 2.75387e-17 0.911839 0.0648529 0.000113874
0.075776 0.5 0.9375 1.00011 0.00439543 0.00660911
0.075776 0.5 -0.9375 1.00011 0.00439809 -0.00659897
0.939111 0.5 0.075 0.912524 0.0646314 0.0131237
0.939201 0.5 -0.075 0.912415 0.0646669 -0.0119093
0.756813 0.5 0.5625 0.964013 0.0414311 0.052899
0.756814 0.5 -0.5625 0.963968 0.0414481 -0.0527582
0.90582 0.5 0.2625 0.925714 0.0592443 0.0380298
0.905821 0.5 -0.2625 0.925681 0.0592549 -0.037822
0.288069 0.5 -0.9 0.998395 0.0132257 -0.0214552
0.288069 0.5 0.9 0.998403 0.013218 0.0214906
0.872064 0.5 -0.375 0.93779 0.0541719 -0.0484613
0.872064 0.5 0.375 0.937833 0.0541577 0.0486498
0.939201 0.5 0.148627 0.914246 0.0640718 0.0240957
0.939201 0.5 -0.15 0.914141 0.0641118 -0.0236944
0.797732 0.5 -0.525 0.957148 0.0451324 -0.0544662
0.797732 0.5 0.525 0.957196 0.0451152 0.0546204
0.219992 0.5 0.9375 0.999571 0.0102729 0.0166289
0.219992 0.5 -0.9375 0.999567 0.0102789 -0.0166031
0.939201 0.5 -0.225 0.916973 0.0632023 -0.0350087
0.939201 0.5 0.225 0.917004 0.0631925 0.0352296
0.905821 0.5 -0.3375 0.929604 0.0579628 -0.0474098
0.90582 0.5 0.3375 0.929646 0.0579494 0.0476124
0.835106 0.5 -0.4875 0.950026 0.0488135 -0.0556296
0.835106 0.5 0.4875 0.950075 0.0487965 0.0557975
0 0.5 0.968821 1 0 0
0 0.5 -0.968821 1 0 0
0.0124865 0.5 -0.968821 1.00002 0.000726681 -0.0010907
0.0124865 0.5 0.968821 1.00002 0.00072625 0.00109237
0.969689 0.5 -0.0375 0.904385 0.0682848 -0.00631638
0.969689 0.5 0.0375 0.904391 0.0682832 0.00655487
0.574156 0.5 -0.7875 0.987303 0.0268799 -0.0438311
0.574156 0.5 0.7875 0.987335 0.0268644 0.0439142
0 0.5 -0.975 1 0 0
0 0.5 0.975 1 0 0
0.624316 0.5 -0.75 0.983138 0.0300155 -0.0476624
0.624316 0.5 0.75 0.983174 0.0299989 0.0477573
0.969689 0.5 -0.1125 0.905656 0.0678835 -0.0190561
0.96969 0.5 0.1125 0.905673 0.0678784 0.019293
0.523432 0.5 -0.825 0.990595 0.0239655 -0.039928
0.523432 0.5 0.825 0.990622 0.0239513 0.0399999
0.67013 0.5 0.7125 0.978734 0.033138 0.0511879
0.67013 0.5 -0.7125 0.978693 0.0331555 -0.051081
0 0.5 -0.981179 1 0 0
0 0.5 0.981179 1 0 0
0.467897 0.5 0.8625 0.993669 0.0210335 0.0356853
0.467897 0.5 -0.8625 0.993647 0.0210461 -0.0356241
0.0124865 0.5 -0.981179 1.00003 0.00070095 -0.00111279
0.0124865 0.5 0.981179 1.00003 0.000700521 0.00111429
0.872064 0.5 -0.45 0.942301 0.0526144 -0.0561674
0.872064 0.5 0.45 0.942353 0.0525975 0.0563487
0.715434 0.5 -0.675 0.973407 0.0365243 -0.0543091
0.715434 0.5 0.675 0.973453 0.0365059 0.0544286
0.939201 0.5 -0.3 0.920836 0.0619607 -0.0456371
0.939201 0.5 0.3 0.920877 0.0619477 0.0458529
0.151149 0.5 0.975 0.999907 0.00729575 0.0119085
0.151149 0.5 -0.975 0.999905 0.00730019 -0.0118912
0.969689 0.5 -0.1875 0.908173 0.0670918 -0.0314101
0.969689 0.5 0.1875 0.908201 0.0670831 0.0316438
0.756813 0.5 -0.6375 0.967806 0.039905 -0.0570993
0.756813 0.5 0.6375 0.967856 0.039886 0.0572317
0.411736 0.5 -0.9 0.995816 0.0182856 -0.0313266
0.411736 0.5 0.9 0.995833 0.0182743 0.0313775
0.90582 0.5 -0.4125 0.934276 0.0564069 -0.0561236
0.90582 0.5 0.4125 0.934328 0.0563905 0.0563176
0.995005 0.5 0.0749309 0.8995 0.070201 0.0145364
0.797732 0.5 -0.6 0.961415 0.0435 -0.0595352
0.797732 0.5 0.6 0.961469 0.0434806 0.059681
1.00005 0.5 -8.47123e-18 0.897454 0.0709438 0.0001033
0.350249 0.5 -0.9375 0.997778 0.015505 -0.0266286
0.350249 0.5 0.9375 0.99779 0.0154955 0.0266697
1.00005 0.5 -0.0749309 0.898143 0.0707366 -0.0133653
0.969689 0.5 -0.2625 0.911868 0.065929 -0.0431288
0.969689 0.5 0.2625 0.911907 0.0659169 0.0433578
0.835106 0.5 -0.5625 0.954679 0.0471087 -0.0614956
0.835106 0.5 0.5625 0.954736 0.0470891 0.0616551
1.00005 0.5 -0.149862 0.9002 0.0701191 -0.0265609
0.939201 0.5 -0.375 0.925605 0.0604171 -0.0553972
0.939201 0.5 0.375 0.925657 0.060401 0.055606
1.00029 0.5 0.148988 0.900394 0.0700463 0.0269494
0.075776 0.5 -1.0125 1.00015 0.00424023 -0.00673349
0.075776 0.5 1.0125 1.00015 0.00423759 0.00674261
0.288069 0.5 0.975 0.998893 0.0127183 0.0220273
0.288069 0.5 -0.975 0.998884 0.0127262 -0.0219953
0.872064 0.5 -0.525 0.947301 0.0508579 -0.0629054
0.872064 0.5 0.525 0.94736 0.0508384 0.0630786
1.00005 0.5 0.224793 0.903596 0.0691002 0.0394223
1.00005 0.5 -0.224793 0.903573 0.0691073 -0.0392191
0.969689 0.5 0.3375 0.916689 0.0644078 0.0542145
0.96969 0.5 -0.3375 0.916638 0.0644233 -0.0539916
1.0271 0.5 -0.0368226 0.889999 0.0742286 -0.00690879
1.0271 0.5 0.0368226 0.890005 0.0742268 0.00716871
0.90582 0.5 0.4875 0.93963 0.0545974 0.0639844
0.905821 0.5 -0.4875 0.93957 0.0546166 -0.0637972
1.0271 0.5 -0.110468 0.891459 0.0738056 -0.0208449
1.0271 0.5 0.110468 0.891147 0.074005 0.0244141
0.67013 0.5 0.7875 0.981728 0.0317475 0.0536264
0.67013 0.5 -0.7875 0.981684 0.0317664 -0.0535274
0.624316 0.5 0.825 0.985726 0.0287338 0.0497493
0.624316 0.5 -0.825 0.985687 0.0287516 -0.049662
0.219993 0.5 -1.0125 0.999828 0.00989388 -0.0169513
0.219993 0.5 1.0125 0.999833 0.00988766 0.0169746
0.574156 0.5 -0.8625 0.9894 0.0257516 -0.0454417
0.574156 0.5 0.8625 0.989433 0.0257351 0.0455179
0.715434 0.5 -0.75 0.976887 0.0350059 -0.0572661
0.715434 0.5 0.75 0.976936 0.034986 0.0573772
0.756813 0.5 0.7125 0.97181 0.0382486 0.0607572
0.756814 0.5 -0.7125 0.971756 0.0382693 -0.0606337
0.523432 0.5 -0.9 0.992308 0.0229645 -0.0411996
0.523432 0.5 0.9 0.992336 0.0229495 0.0412652
0.939201 0.5 -0.45 0.931128 0.0586039 -0.0641149
0.939201 0.5 0.45 0.93119 0.0585848 0.0643156
1.04168 0.5 0 0.885779 0.0759493 0.000132833
1.0271 0.5 -0.184113 0.894353 0.0729692 -0.0343654
1.0271 0.5 0.184113 0.894386 0.0729598 0.0346205
0 0.5 -1.04382 1 0 0
0 0.5 1.04382 1 0 0
0.0124865 0.5 -1.04382 1.00003 0.00070095 -0.00111279
0.0124865 0.5 1.04382 1.00003 0.000700521 0.00111429
1.00005 0.5 -0.299723 0.908165 0.0677255 -0.0510913
1.00005 0.5 0.299723 0.908197 0.0677159 0.0512916
1.04168 0.5 -0.0729162 0.886523 0.0757363 -0.0141838
1.04168 0.5 0.0729162 0.886536 0.0757325 0.0144487
0.797732 0.5 -0.675 0.965859 0.0417538 -0.0637218
0.797732 0.5 0.675 0.965917 0.0417324 0.0638584
0.467897 0.5 0.9375 0.994992 0.0201675 0.0366624
0.467897 0.5 -0.9375 0.99497 0.0201809 -0.0366069
0 0.5 -1.05 1 0 0
0 0.5 1.05 1 0 0
0.835106 0.5 -0.6375 0.959583 0.0452661 -0.0664079
0.835106 0.5 0.6375 0.959645 0.0452443 0.0665579
1.04168 0.5 -0.145832 0.88875 0.0750992 -0.0282185
1.04168 0.5 0.145832 0.888776 0.0750915 0.0284809
0.969689 0.5 -0.4125 0.922318 0.0626117 -0.063828
0.96969 0.5 0.4125 0.92238 0.062593 0.064043
0 0.5 -1.05618 1 0 0
0 0.5 1.05618 1 0 0
0.0124865 0.5 -1.05618 1.00003 0.000675609 -0.00112569
0.0124865 0.5 1.05618 1.00003 0.000675184 0.00112703
1.05695 0.5 -0.0360764 0.881591 0.077636 -0.00725917
1.05695 0.5 0.0360764 0.881592 0.077636 0.00740984
0.411736 0.5 -0.975 0.996825 0.0175432 -0.0320597
0.411736 0.5 0.975 0.996843 0.0175315 0.0321057
0.872064 0.5 -0.6 0.95264 0.0489361 -0.068618
0.872064 0.5 0.6 0.952706 0.0489141 0.0687817
1.0271 0.5 -0.257759 0.8986 0.0717393 -0.0472043
1.0271 0.5 0.257759 0.898646 0.0717261 0.0474545
0.151149 0.5 -1.05 1.00006 0.00702505 -0.0120867
0.151149 0.5 1.05 1.00006 0.00702049 0.0121022
1.05695 0.5 0.108229 0.882327 0.0775371 0.0223544
1.05695 0.5 -0.108229 0.883119 0.0772031 -0.0217828
1.04168 0.5 -0.218749 0.892404 0.0740539 -0.0416978
1.04168 0.5 0.218749 0.892444 0.0740423 0.0419562
0.90582 0.5 -0.5625 0.945308 0.052634 -0.0703795
0.905821 0.5 0.5625 0.945376 0.052612 0.0705572
1.00005 0.5 -0.374654 0.913831 0.0660068 -0.0619686
1.00005 0.5 0.374654 0.913873 0.0659947 0.0621651
0.350249 0.5 1.0125 0.998484 0.0148848 0.0271925
0.350249 0.5 -1.0125 0.998471 0.0148947 -0.0271554
1.05695 0.5 -0.180382 0.886143 0.0763484 -0.0358812
1.05695 0.5 0.180382 0.886147 0.0763475 0.0360342
1.07319 0.5 0.0709442 0.877621 0.0793385 0.0181717
0.939201 0.5 -0.525 0.937231 0.0565605 -0.0716989
0.939201 0.5 0.525 0.937301 0.0565384 0.0718904
1.0271 0.5 -0.331404 0.904077 0.0701437 -0.0591184
1.0271 0.5 0.331404 0.904136 0.0701268 0.0593621
1.08112 0.5 3.23815e-17 0.874165 0.0805519 0.000109839
1.04168 0.5 -0.291665 0.897384 0.0726237 -0.0543614
1.04168 0.5 0.291665 0.897438 0.0726083 0.0546141
1.08112 0.5 -0.0709442 0.874952 0.080334 -0.0149858
0.969689 0.5 -0.4875 0.92873 0.0605275 -0.0724411
0.96969 0.5 0.4875 0.928802 0.0605056 0.0726469
1.05695 0.5 0.252535 0.890588 0.0750901 0.0494365
1.05695 0.5 -0.252535 0.890582 0.0750917 -0.0492816
0.288069 0.5 -1.05 0.99936 0.0122237 -0.0223436
0.288069 0.5 1.05 0.999369 0.0122154 0.0223723
0.075776 0.5 -1.0875 1.00017 0.00408463 -0.00681218
0.075776 0.5 1.0875 1.00018 0.00408197 0.00682029
1.08112 0.5 -0.141888 0.877304 0.0796838 -0.0297936
1.08145 0.5 0.140165 0.877661 0.0795564 0.0303938
0.715434 0.5 0.825 0.980402 0.0334165 0.059613
0.715434 0.5 -0.825 0.98035 0.0334379 -0.059511
0.756813 0.5 0.7875 0.97578 0.0365467 0.0634835
0.756814 0.5 -0.7875 0.975722 0.036569 -0.0633694
0.67013 0.5 -0.8625 0.984636 0.0303404 -0.0553455
0.67013 0.5 0.8625 0.984683 0.0303202 0.0554359
0.797732 0.5 -0.75 0.970365 0.0399227 -0.0670215
0.797732 0.5 0.75 0.970428 0.0398995 0.0671481
0.624316 0.5 -0.9 0.988185 0.027462 -0.05111
0.624316 0.5 0.9 0.988226 0.0274431 0.0511893
1.00005 0.5 -0.449585 0.920381 0.0639878 -0.071659
1.00005 0.5 0.449585 0.920431 0.0639732 0.0718506
0.835106 0.5 -0.7125 0.96462 0.0433175 -0.0703461
0.835106 0.5 0.7125 0.964688 0.0432936 0.0704857
0.574156 0.5 -0.9375 0.99144 0.0246065 -0.0465754
0.574157 0.5 0.9375 0.991475 0.0245892 0.0466442
1.10076 0.5 -0.0349809 0.868027 0.0829259 -0.00763804
1.10076 0.5 0.0349809 0.868035 0.0829239 0.00792776
1.08112 0.5 -0.212832 0.881164 0.0786163 -0.0440332
1.08112 0.5 0.212832 0.881189 0.0786089 0.0442508
0.872064 0.5 -0.675 0.958178 0.0468821 -0.0732778
0.872064 0.5 0.675 0.958251 0.0468578 0.0734309
1.04168 0.5 -0.364581 0.90354 0.0708408 -0.0659855
1.04168 0.5 0.364581 0.903607 0.0708217 0.0662309
1.0271 0.5 0.405049 0.910678 0.0681987 0.0701471
1.0271 0.5 -0.405049 0.910606 0.0682191 -0.0699113
1.05695 0.5 -0.324688 0.896312 0.0734599 -0.061731
1.05695 0.5 0.324688 0.896323 0.0734575 0.061888
1.10076 0.5 -0.104943 0.869642 0.0824869 -0.0230574
1.10076 0.5 0.104943 0.869664 0.0824804 0.0233456