# UMean  POINT_DATA 63140
# x  y  z  UMean_x  UMean_y  UMean_z
0 0.1 0 1 0 0
0 0.1 -0.0179898 1 0 0
0 0.1 0.0179898 1 0 0
0.0363518 0.1 0.0179898 1.00294 0.00746618 0.000207167
0.0363518 0.1 -0.0179898 1.00294 0.00746638 -0.000197967
0 0.1 -0.0570102 1 0 0
0 0.1 0.0570102 1 0 0
0.0363518 0.1 0.0570102 1.00294 0.00746618 0.000207167
0.0363518 0.1 -0.0570102 1.00294 0.00746638 -0.000197967
0 0.1 -0.075 1 0 0
0 0.1 0.075 1 0 0
0.075776 0.1 -0.0375 1.00617 0.0156911 -0.000412471
0.075776 0.1 0.0375 1.00617 0.0156907 0.000431653
0 0.1 -0.0929898 1 0 0
0 0.1 0.0929898 1 0 0
0.0363518 0.1 -0.0929898 1.00288 0.00743624 -0.000615805
0.0363518 0.1 0.0929898 1.00288 0.00743562 0.00062511
0 0.1 -0.13201 1 0 0
0 0.1 0.13201 1 0 0
0.075776 0.1 -0.1125 1.00605 0.0156297 -0.00128396
0.075776 0.1 0.1125 1.00604 0.0156285 0.00130336
0.0363518 0.1 -0.13201 1.00288 0.00743624 -0.000615805
0.0363518 0.1 0.13201 1.00288 0.00743562 0.00062511
0 0.1 -0.15 1 0 0
0 0.1 0.15 1 0 0
0.150379 0.1 -2.22623e-17 1.00829 0.0152116 1.66947e-05
0 0.1 -0.16799 1 0 0
0 0.1 0.16799 1 0 0
0.150379 0.1 -0.075 1.00833 0.0151885 -0.00146178
0.150379 0.1 0.075 1.00833 0.0151881 0.00149522
0.0363518 0.1 -0.16799 1.00282 0.00739977 -0.00101677
0.0363518 0.1 0.16799 1.00282 0.00739918 0.00102597
0.075776 0.1 -0.1875 1.00592 0.0155561 -0.00212045
0.075776 0.1 0.1875 1.00592 0.0155549 0.00213964
0 0.1 -0.20701 1 0 0
0 0.1 0.20701 1 0 0
0.0363518 0.1 -0.20701 1.00282 0.00739977 -0.00101677
0.0363518 0.1 0.20701 1.00282 0.00739918 0.00102597
0.150379 0.1 -0.15 1.00849 0.015137 -0.00294555
0.150379 0.1 0.15 1.00849 0.0151365 0.00297935
0.219993 0.1 -0.0375 1.01031 0.0147583 -0.00101353
0.219993 0.1 0.0375 1.01031 0.0147583 0.00106048
0 0.1 -0.225 1 0 0
0 0.1 0.225 1 0 0
0 0.1 -0.24299 1 0 0
0 0.1 0.24299 1 0 0
0.0363518 0.1 0.24299 1.00277 0.00736649 0.0014097
0.0363518 0.1 -0.24299 1.00277 0.00736704 -0.00140079
0.219993 0.1 -0.1125 1.0106 0.014726 -0.00308146
0.219993 0.1 0.1125 1.01061 0.0147261 0.00312842
0.150379 0.1 -0.225 1.00872 0.0150797 -0.00440517
0.150379 0.1 0.225 1.00873 0.015079 0.00443865
0.075776 0.1 -0.2625 1.00582 0.0154896 -0.00292108
0.075776 0.1 0.2625 1.00581 0.0154885 0.00293964
0 0.1 -0.28201 1 0 0
0 0.1 0.28201 1 0 0
0.0363518 0.1 -0.28201 1.00277 0.00736704 -0.00140079
0.0363518 0.1 0.28201 1.00277 0.00736649 0.0014097
0.287374 0.1 -2.89121e-19 1.00725 0.0142859 2.99593e-05
0.219992 0.1 0.1875 1.01118 0.0146866 0.00523207
0.219992 0.1 -0.1875 1.01117 0.0146863 -0.00518371
0.287374 0.1 -0.075 1.00738 0.0142786 -0.0026636
0.287374 0.1 0.075 1.00739 0.0142788 0.00272368
0 0.1 -0.3 1 0 0
0 0.1 0.3 1 0 0
0 0.1 0.31799 1 0 0
0 0.1 -0.31799 1 0 0
0.0363518 0.1 -0.31799 1.00274 0.00733452 -0.00175201
0.0363518 0.1 0.31799 1.00274 0.00733401 0.00176046
0.287374 0.1 0.15 1.0078 0.0142546 0.0054267
0.287374 0.1 -0.15 1.00779 0.0142544 -0.00536623
0.150379 0.1 -0.3 1.00895 0.0150175 -0.0057904
0.150379 0.1 0.3 1.00895 0.0150168 0.00582261
0.219993 0.1 0.2625 1.01174 0.0146349 0.00727146
0.219993 0.1 -0.2625 1.01173 0.0146358 -0.00722496
0.075776 0.1 -0.3375 1.00575 0.0154228 -0.00365265
0.075776 0.1 0.3375 1.00575 0.0154218 0.00367025
0.350249 0.1 -0.0375 1.00432 0.0138347 -0.00160875
0.350249 0.1 0.0375 1.00432 0.0138354 0.00168107
0 0.1 -0.35701 1 0 0
0 0.1 0.35701 1 0 0
0.0363518 0.1 -0.35701 1.00274 0.00733452 -0.00175201
0.0363518 0.1 0.35701 1.00274 0.00733401 0.00176046
0.287374 0.1 -0.225 1.00838 0.0142064 -0.00804488
0.287374 0.1 0.225 1.00839 0.0142067 0.00810506
0.350249 0.1 -0.1125 1.00456 0.0138376 -0.00489754
0.350249 0.1 0.1125 1.00457 0.0138377 0.00497048
0 0.1 -0.375 1 0 0
0 0.1 0.375 1 0 0
0 0.1 -0.39299 1 0 0
0 0.1 0.39299 1 0 0
0.0363518 0.1 -0.39299 1.00272 0.00730295 -0.00207
0.0363518 0.1 0.39299 1.00272 0.00730242 0.00207805
0.350249 0.1 -0.1875 1.00509 0.0138091 -0.00819604
0.350249 0.1 0.1875 1.0051 0.0138097 0.00826855
0.219992 0.1 -0.3375 1.0122 0.0145705 -0.00913637
0.219992 0.1 0.3375 1.01221 0.0145706 0.00918128
0.150379 0.1 0.375 1.00916 0.0149502 0.00710429
0.150379 0.1 -0.375 1.00916 0.0149509 -0.0070732
0.411108 0.1 4.33681e-19 0.999012 0.0141118 4.30435e-05
0.287374 0.1 -0.3 1.00901 0.0141311 -0.0106103
0.287374 0.1 0.3 1.00902 0.014131 0.0106695
0.411108 0.1 -0.075 0.999155 0.0141109 -0.00393867
0.411108 0.1 0.075 0.999159 0.0141112 0.00402457
0.075776 0.1 -0.4125 1.00572 0.0153585 -0.00431556
0.075776 0.1 0.4125 1.00572 0.0153574 0.00433233
0 0.1 0.43201 1 0 0
0 0.1 -0.43201 1 0 0
0.0363518 0.1 0.43201 1.00272 0.00730242 0.00207805
0.0363518 0.1 -0.43201 1.00272 0.00730295 -0.00207
0.411108 0.1 -0.15 0.999605 0.014093 -0.00790315
0.411108 0.1 0.15 0.999613 0.0140937 0.0079891
0.350249 0.1 -0.2625 1.00579 0.0137366 -0.0114164
0.350249 0.1 0.2625 1.00581 0.0137374 0.0114887
0 0.1 -0.45 1 0 0
0 0.1 0.45 1 0 0
0.219992 0.1 0.4125 1.01267 0.0144999 0.0109525
0.219992 0.1 -0.4125 1.01266 0.0145007 -0.0109087
0 0.1 -0.46799 1 0 0
0 0.1 0.46799 1 0 0
0.411108 0.1 -0.225 1.00034 0.0140359 -0.0117991
0.411108 0.1 0.225 1.00035 0.0140364 0.0118848
0.467897 0.1 -0.0375 0.993922 0.0143757 -0.00227892
0.467897 0.1 0.0375 0.993925 0.0143754 0.0023782
0.0363518 0.1 0.46799 1.00272 0.00727334 0.00237613
0.0363518 0.1 -0.46799 1.00272 0.00727388 -0.00236822
0.287374 0.1 -0.375 1.00964 0.0140331 -0.0130025
0.287374 0.1 0.375 1.00965 0.0140321 0.0130599
0.150379 0.1 0.45 1.00938 0.0148822 0.00826908
0.150379 0.1 -0.45 1.00937 0.0148834 -0.0082395
0.467897 0.1 0.1125 0.99426 0.0143704 0.00701146
0.467897 0.1 -0.1125 0.994254 0.0143701 -0.00691351
0.350249 0.1 -0.3375 1.00657 0.0136252 -0.0144539
0.350249 0.1 0.3375 1.00658 0.0136249 0.0145258
0.075776 0.1 -0.4875 1.00573 0.0152994 -0.00493703
0.075776 0.1 0.4875 1.00573 0.0152982 0.0049535
0.467897 0.1 0.1875 0.994955 0.0143315 0.0115941
0.467897 0.1 -0.1875 0.994944 0.01433 -0.0114948
0 0.1 -0.50701 1 0 0
0 0.1 0.50701 1 0 0
0.0363518 0.1 -0.50701 1.00272 0.00727388 -0.00236822
0.0363518 0.1 0.50701 1.00272 0.00727334 0.00237613
0.411108 0.1 0.3 1.00127 0.0139331 0.0156151
0.411108 0.1 -0.3 1.00126 0.0139335 -0.0155307
0.522865 0.1 1.41031e-17 0.987163 0.0150545 5.62658e-05
0 0.1 -0.525 1 0 0
0 0.1 0.525 1 0 0
0.522865 0.1 -0.075 0.987362 0.0150462 -0.00531996
0.522865 0.1 0.075 0.987366 0.0150461 0.00543188
0.287374 0.1 0.45 1.01028 0.0139148 0.0152323
0.287374 0.1 -0.45 1.01027 0.0139167 -0.0151782
0.219992 0.1 0.4875 1.01307 0.0144228 0.0125098
0.219992 0.1 -0.4875 1.01306 0.0144249 -0.0124697
0.467897 0.1 -0.2625 0.995939 0.0142431 -0.0159263
0.467897 0.1 0.2625 0.995953 0.0142422 0.0160242
0.350249 0.1 -0.4125 1.00738 0.0134825 -0.017254
0.350249 0.1 0.4125 1.00739 0.0134795 0.0173218
0 0.1 -0.54299 1 0 0
0 0.1 0.54299 1 0 0
0.522865 0.1 0.15 0.987982 0.0150086 0.0107498
0.522865 0.1 -0.15 0.987973 0.0150082 -0.0106384
0.0363518 0.1 0.54299 1.00275 0.00724339 0.00265116
0.0363518 0.1 -0.54299 1.00275 0.00724376 -0.00264357
0.150379 0.1 -0.525 1.00958 0.0148108 -0.00927866
0.150379 0.1 0.525 1.00958 0.0148093 0.0093063
0.411108 0.1 -0.375 1.00231 0.0137876 -0.0190135
0.411108 0.1 0.375 1.00232 0.0137862 0.0190951
0.075776 0.1 -0.5625 1.00578 0.0152377 -0.00551083
0.075776 0.1 0.5625 1.00578 0.0152369 0.00552665
0.522865 0.1 -0.225 0.988981 0.0149225 -0.0158199
0.522865 0.1 0.225 0.988995 0.0149225 0.0159306
0.574156 0.1 0.0375 0.980666 0.0157035 0.00311231
0.574157 0.1 -0.0375 0.980663 0.0157047 -0.00298704
0.467897 0.1 -0.3375 0.997155 0.0141052 -0.0201141
0.467897 0.1 0.3375 0.997172 0.0141041 0.0202085
0 0.1 -0.58201 1 0 0
0 0.1 0.58201 1 0 0
0.0363518 0.1 -0.58201 1.00275 0.00724376 -0.00264357
0.0363518 0.1 0.58201 1.00275 0.00724339 0.00265116
0.574157 0.1 -0.1125 0.981129 0.0156764 -0.00904485
0.574157 0.1 0.1125 0.981137 0.0156771 0.00916899
0.287374 0.1 -0.525 1.01086 0.0137845 -0.017108
0.287374 0.1 0.525 1.01087 0.0137825 0.0171588
0 0.1 -0.6 1 0 0
0 0.1 0.6 1 0 0
0.350249 0.1 0.4875 1.0082 0.0133075 0.0198427
0.350249 0.1 -0.4875 1.00819 0.0133091 -0.0197791
0.522865 0.1 -0.3 0.990323 0.0147815 -0.0207617
0.522865 0.1 0.3 0.990341 0.0147805 0.0208702
0.219992 0.1 -0.5625 1.01341 0.0143321 -0.0138299
0.219992 0.1 0.5625 1.01341 0.0143303 0.0138671
0.574156 0.1 -0.1875 0.982079 0.0155994 -0.0149903
0.574156 0.1 0.1875 0.982093 0.0155987 0.0151138
0.411108 0.1 0.45 1.00343 0.0136006 0.0222693
0.411108 0.1 -0.45 1.00342 0.0136025 -0.0221914
0 0.1 -0.61799 1 0 0
0 0.1 0.61799 1 0 0
0.150379 0.1 -0.6 1.00979 0.0147316 -0.0101967
0.150379 0.1 0.6 1.00979 0.0147304 0.0102232
0.0363518 0.1 -0.61799 1.00277 0.00721543 -0.00288769
0.0363518 0.1 0.61799 1.00277 0.00721507 0.00289503
0.467897 0.1 -0.4125 0.998516 0.0139152 -0.0239737
0.467897 0.1 0.4125 0.998534 0.0139142 0.0240648
0.623803 0.1 2.34188e-17 0.972813 0.0167139 6.90098e-05
0.623803 0.1 0.075 0.973095 0.0166926 0.00691534
0.623803 0.1 -0.075 0.973089 0.0166931 -0.0067778
0.574156 0.1 0.2625 0.983484 0.0154625 0.0208275
0.574156 0.1 -0.2625 0.983466 0.0154624 -0.0207061
0.623803 0.1 0.15 0.973941 0.0166194 0.0136643
0.623803 0.1 -0.15 0.973929 0.01662 -0.0135276
0.075776 0.1 0.6375 1.00582 0.015179 0.00603498
0.075776 0.1 -0.6375 1.00582 0.0151797 -0.0060197
0.522865 0.1 -0.375 0.991917 0.0145828 -0.0253682
0.522865 0.1 0.375 0.991938 0.0145811 0.0254732
0 0.1 0.65701 1 0 0
0 0.1 -0.65701 1 0 0
0.0363518 0.1 0.65701 1.00277 0.00721507 0.00289503
0.0363518 0.1 -0.65701 1.00277 0.00721543 -0.00288769
0.350249 0.1 0.5625 1.009 0.0131241 0.0220725
0.350249 0.1 -0.5625 1.00899 0.0131262 -0.0220109
0.623803 0.1 0.225 0.975331 0.0164796 0.0202063
0.623803 0.1 -0.225 0.975314 0.0164812 -0.0200709
0.287374 0.1 -0.6 1.01145 0.0136407 -0.0187985
0.287374 0.1 0.6 1.01146 0.0136385 0.0188471
0.574157 0.1 -0.3375 0.985218 0.0152624 -0.0260896
0.574157 0.1 0.3375 0.985241 0.0152604 0.0262092
0.411108 0.1 0.525 1.00458 0.0133883 0.0251046
0.411108 0.1 -0.525 1.00456 0.0133906 -0.0250304
0.67013 0.1 0.0375 0.965245 0.017683 0.00388365
0.67013 0.1 -0.0375 0.965243 0.0176831 -0.00373334
0.219992 0.1 -0.6375 1.01378 0.0142295 -0.0150251
0.219993 0.1 0.6375 1.01379 0.0142281 0.0150616
0 0.1 -0.675 1 0 0
0 0.1 0.675 1 0 0
0.467897 0.1 -0.4875 0.999957 0.0136831 -0.0274581
0.467897 0.1 0.4875 0.999976 0.0136812 0.0275458
0.67013 0.1 -0.1125 0.965884 0.0176277 -0.0112916
0.67013 0.1 0.1125 0.965893 0.0176264 0.0114411
0.522865 0.1 0.45 0.993704 0.0143284 0.0296665
0.522865 0.1 -0.45 0.993681 0.0143307 -0.0295655
0.150379 0.1 0.675 1.01001 0.0146507 0.0110228
0.150379 0.1 -0.675 1.01001 0.0146522 -0.0109978
0.623803 0.1 0.3 0.977201 0.0162685 0.0264144
0.623803 0.1 -0.3 0.977179 0.0162713 -0.0262814
0 0.1 -0.69299 1 0 0
0 0.1 0.69299 1 0 0
0.0363518 0.1 -0.69299 1.00279 0.00719084 -0.00309731
0.0363518 0.1 0.69299 1.00279 0.00719026 0.0031041
0.67013 0.1 -0.1875 0.967177 0.0174977 -0.0186757
0.67013 0.1 0.1875 0.967193 0.0174964 0.0188245
0.574156 0.1 0.4125 0.987267 0.0149957 0.0311541
0.574157 0.1 -0.4125 0.98724 0.0149986 -0.0310399
0.714971 0.1 -2.8382e-17 0.956561 0.0189986 8.09201e-05
0.075776 0.1 -0.7125 1.00586 0.0151295 -0.00645661
0.075776 0.1 0.7125 1.00586 0.0151283 0.00647075
0.714971 0.1 -0.075 0.956933 0.0189619 -0.00831546
0.714971 0.1 0.075 0.956939 0.0189618 0.00847767
0.67013 0.1 0.2625 0.969093 0.0172844 0.0258996
0.67013 0.1 -0.2625 0.969073 0.0172887 -0.0257529
0.411108 0.1 -0.6 1.00573 0.0131624 -0.0275134
0.411108 0.1 0.6 1.00574 0.0131593 0.0275837
0.350249 0.1 0.6375 1.00982 0.0129301 0.0240082
0.350249 0.1 -0.6375 1.00981 0.0129335 -0.0239502
0.623803 0.1 0.375 0.979461 0.0159865 0.032183
0.623803 0.1 -0.375 0.979434 0.015991 -0.0320543
0.714971 0.1 -0.15 0.958056 0.0188444 -0.0165767
0.714971 0.1 0.15 0.958068 0.0188427 0.016738
0.467897 0.1 -0.5625 1.00145 0.0134269 -0.030535
0.467897 0.1 0.5625 1.00147 0.0134233 0.0306176
0 0.1 -0.73201 1 0 0
0 0.1 0.73201 1 0 0
0.0363518 0.1 0.73201 1.00279 0.00719026 0.0031041
0.0363518 0.1 -0.73201 1.00279 0.00719084 -0.00309731
0.287374 0.1 -0.675 1.01206 0.0134886 -0.020258
0.287374 0.1 0.675 1.01207 0.0134857 0.0203035
0.522865 0.1 -0.525 0.995556 0.0140389 -0.0333058
0.522865 0.1 0.525 0.99558 0.0140353 0.033402
0.219993 0.1 -0.7125 1.01419 0.014125 -0.0160587
0.219992 0.1 0.7125 1.0142 0.0141223 0.0160919
0.714971 0.1 -0.225 0.959904 0.0186336 -0.0245582
0.714971 0.1 0.225 0.959922 0.0186312 0.0247172
0 0.1 0.75 1 0 0
0 0.1 -0.75 1 0 0
0.67013 0.1 -0.3375 0.971476 0.0169983 -0.0323709
0.67013 0.1 0.3375 0.971504 0.0169933 0.0325145
0.574156 0.1 -0.4875 0.989445 0.0146792 -0.0354944
0.574157 0.1 0.4875 0.989473 0.0146757 0.0356043
0.756813 0.1 0.0375 0.948166 0.0202655 0.00469611
0.756814 0.1 -0.0375 0.948163 0.020265 -0.00452312
0.150379 0.1 0.746002 1.01015 0.014586 0.0115771
0.150379 0.1 -0.75 1.01024 0.0145748 -0.0116763
0.756813 0.1 -0.1125 0.949012 0.0201744 -0.013661
0.756813 0.1 0.1125 0.949022 0.0201749 0.0138362
0 0.1 0.76799 1 0 0
0 0.1 -0.76799 1 0 0
0.0363518 0.1 0.76799 1.0028 0.00716892 0.00327668
0.0363518 0.1 -0.76799 1.0028 0.00716924 -0.00327052
0.623803 0.1 -0.45 0.981982 0.0156439 -0.0372995
0.623803 0.1 0.45 0.982012 0.0156387 0.0374222
0.714971 0.1 -0.3 0.962397 0.0183293 -0.0321076
0.714971 0.1 0.3 0.962421 0.0183253 0.0322647
0.756814 0.1 -0.1875 0.95071 0.0199823 -0.0225736
0.756814 0.1 0.1875 0.950725 0.0199776 0.0227445
0.67013 0.1 -0.4125 0.974291 0.016635 -0.0384675
0.67013 0.1 0.4125 0.974323 0.0166269 0.0386042
0.411108 0.1 0.675 1.00694 0.0129164 0.0296984
0.411108 0.1 -0.675 1.00693 0.0129202 -0.0296327
0.467897 0.1 0.6375 1.003 0.0131461 0.0332645
0.467897 0.1 -0.6375 1.00298 0.0131492 -0.033186
0.075776 0.1 0.7875 1.00589 0.0150849 0.00683039
0.075776 0.1 -0.7875 1.00589 0.0150855 -0.00681757
0.350249 0.1 -0.7125 1.01065 0.012729 -0.0255901
0.350249 0.1 0.7125 1.01066 0.0127254 0.0256435
0.522865 0.1 -0.6 0.997508 0.013719 -0.0365581
0.522865 0.1 0.6 0.997534 0.0137148 0.0366488
0.797314 0.1 -3.59473e-17 0.938873 0.0219524 9.20605e-05
0.287374 0.1 0.746002 1.0127 0.0133492 0.0213803
0.797314 0.1 -0.075 0.939356 0.0218965 -0.0099326
0.797314 0.1 0.075 0.939362 0.0218968 0.0101173
0.756814 0.1 -0.2625 0.953201 0.0196731 -0.0310765
0.756814 0.1 0.2625 0.953219 0.0196737 0.0312455
0.287374 0.1 -0.75 1.01269 0.0133314 -0.0214823
0.574156 0.1 -0.5625 0.991777 0.0143234 -0.0394045
0.574156 0.1 0.5625 0.991806 0.014318 0.0395081
0 0.1 0.80701 1 0 0
0 0.1 -0.80701 1 0 0
0.714971 0.1 -0.375 0.96543 0.0179366 -0.0390957
0.714971 0.1 0.375 0.965461 0.0179296 0.0392474
0.0363518 0.1 0.80701 1.0028 0.00716892 0.00327668
0.0363518 0.1 -0.80701 1.0028 0.00716924 -0.00327052
0.797314 0.1 -0.15 0.940808 0.0217221 -0.0197843
0.797314 0.1 0.15 0.94082 0.0217215 0.0199664
0.623803 0.1 -0.525 0.984737 0.0152436 -0.0419449
0.623803 0.1 0.525 0.98477 0.0152381 0.0420617
0.219992 0.1 0.7875 1.01461 0.014016 0.016947
0.219992 0.1 -0.7875 1.01461 0.0140168 -0.0169161
0.149792 0.1 0.80701 1.0104 0.0145178 0.0121209
0 0.1 0.825 1 0 0
0 0.1 -0.825 1 0 0
0.797314 0.1 -0.225 0.943191 0.0214172 -0.0292757
0.797314 0.1 0.225 0.943208 0.0214199 0.0294557
0.756813 0.1 -0.3375 0.95636 0.0192683 -0.0390298
0.756813 0.1 0.3375 0.95639 0.019261 0.039198
0.67013 0.1 0.4875 0.977445 0.016191 0.0440374
0.67013 0.1 -0.4875 0.97741 0.0161971 -0.0439077
0.835106 0.1 -0.0375 0.929859 0.0235813 -0.00535024
0.835106 0.1 0.0375 0.929861 0.023583 0.00554516
0.150379 0.1 -0.825 1.01046 0.0145 -0.0122273
0.835106 0.1 -0.1125 0.930944 0.0234511 -0.0161457
0.835106 0.1 0.1125 0.930955 0.0234498 0.0163406
0 0.1 -0.84299 1 0 0
0 0.1 0.84299 1 0 0
0.0363518 0.1 -0.84299 1.00281 0.00715115 -0.00340718
0.0363518 0.1 0.84299 1.00281 0.00715079 0.0034129
0.714971 0.1 -0.45 0.968894 0.0174615 -0.0454123
0.714971 0.1 0.45 0.96893 0.0174544 0.0455562
0.411108 0.1 0.746002 1.00815 0.0126765 0.0312794
0.797314 0.1 -0.3 0.946409 0.0209893 -0.0382291
0.797314 0.1 0.3 0.946434 0.0209901 0.0384104
0.467897 0.1 -0.7125 1.00455 0.0128593 -0.0354062
0.467897 0.1 0.7125 1.00457 0.012854 0.0354782
0.522865 0.1 0.675 0.999539 0.0133744 0.0393925
0.522865 0.1 -0.675 0.999512 0.0133791 -0.0393078
0.411108 0.1 -0.75 1.00814 0.0126692 -0.0313866
0.835106 0.1 -0.1875 0.933109 0.0231686 -0.0266568
0.835107 0.1 0.1875 0.933123 0.0231715 0.0268439
0.286844 0.1 0.80701 1.01319 0.0132101 0.0222903
0.574156 0.1 0.6375 0.994226 0.0139334 0.042843
0.574157 0.1 -0.6375 0.994194 0.0139381 -0.0427457
0.350249 0.1 -0.7875 1.01149 0.012522 -0.0269323
0.350249 0.1 0.7875 1.01151 0.0125186 0.0269823
0.756813 0.1 -0.4125 0.960088 0.0187606 -0.0462727
0.756814 0.1 0.4125 0.960123 0.0187529 0.0464303
0.623803 0.1 -0.6 0.987632 0.0148058 -0.0459535
0.623803 0.1 0.6 0.987668 0.0147998 0.0460639
0.075776 0.1 0.8625 1.00591 0.015048 0.00711417
0.075776 0.1 -0.8625 1.00591 0.0150487 -0.00710226
0.871687 0.1 -3.2767e-18 0.920235 0.0255651 0.000102306
0.287374 0.1 -0.825 1.01333 0.0131729 -0.0224699
0.871687 0.1 -0.075 0.920838 0.0254845 -0.0116179
0.871687 0.1 0.075 0.920844 0.0254859 0.0118227
0.67013 0.1 -0.5625 0.98074 0.0157137 -0.0486514
0.67013 0.1 0.5625 0.980779 0.0157066 0.0487748
0.835106 0.1 0.2625 0.936293 0.0227478 0.0368414
0.835106 0.1 -0.2625 0.936272 0.022736 -0.036649
0.797314 0.1 -0.375 0.950339 0.0204476 -0.0464755
0.797314 0.1 0.375 0.950373 0.0204418 0.0466514
0 0.1 -0.88201 1 0 0
0 0.1 0.88201 1 0 0
0.0363518 0.1 0.88201 1.00281 0.00715079 0.0034129
0.0363518 0.1 -0.88201 1.00281 0.00715115 -0.00340718
0.871687 0.1 0.15 0.92266 0.0252388 0.0233251
0.871687 0.1 -0.15 0.922646 0.0252359 -0.0231238
0.714971 0.1 0.525 0.972711 0.016914 0.0511101
0.714971 0.1 -0.525 0.97267 0.0169204 -0.0509727
0.219993 0.1 0.8625 1.01502 0.0139075 0.0176251
0.219992 0.1 -0.8625 1.01501 0.0139097 -0.0175961
0 0.1 0.9 1 0 0
0 0.1 -0.9 1 0 0
0.756813 0.1 0.4875 0.964291 0.0181678 0.0528743
0.756814 0.1 -0.4875 0.964249 0.0181739 -0.0527233
0.871687 0.1 0.225 0.925629 0.0248212 0.034385
0.871687 0.1 -0.225 0.925608 0.0248115 -0.0341848
0.835106 0.1 -0.3375 0.940309 0.0221757 -0.0459708
0.835106 0.1 0.3375 0.940338 0.0221734 0.0461654
0.41063 0.1 0.80701 1.00909 0.0124731 0.0325353
0.90582 0.1 -0.0375 0.910868 0.0274845 -0.00620901
0.905821 0.1 0.0375 0.91087 0.0274886 0.00642305
0.522865 0.1 0.746002 1.00154 0.0130336 0.0414421
0.150379 0.1 0.9 1.01067 0.0144268 0.0126709
0.90582 0.1 0.1125 0.912208 0.0273001 0.0189346
0.905821 0.1 -0.1125 0.912197 0.0272991 -0.0187197
0.522865 0.1 -0.75 1.00154 0.0130272 -0.0415538
0.574156 0.1 0.7125 0.996691 0.01353 0.045598
0.574156 0.1 -0.7125 0.996658 0.0135357 -0.0455079
0.797314 0.1 -0.45 0.954845 0.0198051 -0.0538858
0.797314 0.1 0.45 0.954886 0.0197986 0.0540521
0.467897 0.1 -0.7875 1.00612 0.0125603 -0.037198
0.467897 0.1 0.7875 1.00615 0.0125575 0.037264
0.150379 0.1 -0.903998 1.01075 0.0144225 -0.0127355
0 0.1 0.91799 1 0 0
0 0.1 -0.91799 1 0 0
0.0363518 0.1 0.91799 1.00282 0.00713498 0.00351345
0.0363518 0.1 -0.91799 1.00282 0.00713516 -0.00350862
0.623803 0.1 0.675 0.990651 0.0143357 0.0494086
0.623803 0.1 -0.675 0.990613 0.014342 -0.0493054
0.411108 0.1 -0.825 1.00935 0.012416 -0.0327801
0.871687 0.1 0.3 0.929646 0.0242346 0.0447933
0.871687 0.1 -0.3 0.929616 0.0242266 -0.0445898
0.67013 0.1 -0.6375 0.984207 0.015192 -0.0526635
0.67013 0.1 0.6375 0.98425 0.0151853 0.0527799
0.90582 0.1 -0.1875 0.914842 0.026905 -0.0308798
0.90582 0.1 0.1875 0.91486 0.0269138 0.0310878
0.350249 0.1 0.8625 1.01235 0.0123095 0.0280299
0.350249 0.1 -0.8625 1.01233 0.0123149 -0.0279842
0.835106 0.1 -0.4125 0.945076 0.0214869 -0.0543992
0.835106 0.1 0.4125 0.945115 0.0214811 0.0545818
0.714971 0.1 -0.6 0.976656 0.0163324 -0.0557284
0.714971 0.1 0.6 0.976701 0.0163253 0.0558589
0.93886 0.1 -1.15648e-17 0.900982 0.0301042 0.000111723
0.075776 0.1 0.9375 1.00593 0.0150158 0.00732359
0.075776 0.1 -0.9375 1.00593 0.0150162 -0.00731353
0.93886 0.1 0.075 0.901722 0.0299948 0.0136222
0.93886 0.1 -0.075 0.901715 0.0299908 -0.013398
0.756813 0.1 0.5625 0.968754 0.0175169 0.058444
0.756814 0.1 -0.5625 0.968707 0.0175232 -0.0582994
0.905821 0.1 -0.2625 0.9187 0.0263206 -0.0424167
0.905821 0.1 0.2625 0.918731 0.0263357 0.0426294
0.287374 0.1 0.9 1.01395 0.013011 0.0232601
0.287374 0.1 -0.903998 1.01386 0.0130122 -0.0232803
0.871687 0.1 0.375 0.934563 0.0234949 0.0543303
0.871687 0.1 -0.375 0.934526 0.0234946 -0.0541319
0.93886 0.1 -0.15 0.903909 0.0296468 -0.0266462
0.93886 0.1 0.15 0.903925 0.0296538 0.0268682
0.797314 0.1 0.525 0.959823 0.0190749 0.0605303
0.797314 0.1 -0.525 0.959774 0.0190813 -0.060372
0 0.1 0.95701 1 0 0
0 0.1 -0.95701 1 0 0
0.0363518 0.1 0.95701 1.00282 0.00713498 0.00351345
0.0363518 0.1 -0.95701 1.00282 0.00713516 -0.00350862
0.522433 0.1 0.80701 1.00311 0.0127523 0.043006
0.219992 0.1 0.9375 1.0154 0.0138003 0.0181271
0.219992 0.1 -0.9375 1.0154 0.0138015 -0.0181028
0.93886 0.1 0.225 0.907523 0.0290843 0.0395801
0.93886 0.1 -0.225 0.907496 0.0290707 -0.0393594
0.90582 0.1 0.3375 0.923689 0.0255705 0.0533591
0.905821 0.1 -0.3375 0.923655 0.0255634 -0.0531453
0.835106 0.1 -0.4875 0.950408 0.0207062 -0.0618847
0.835107 0.1 0.4875 0.950456 0.0206998 0.062058
0.969689 0.1 -0.0375 0.89133 0.032647 -0.00713259
0.969689 0.1 0.0375 0.891334 0.032653 0.00736521
0.61613 0.1 0.75 0.993662 0.0138576 0.0520957
0.574156 0.1 -0.7875 0.999125 0.0131243 -0.047699
0.574156 0.1 0.7875 0.99916 0.0131195 0.047781
0 0.1 0.975 1 0 0
0 0.1 -0.975 1 0 0
0.623803 0.1 -0.75 0.993621 0.0138641 -0.0520015
0.969689 0.1 -0.1125 0.892935 0.0323898 -0.0214859
0.969689 0.1 0.1125 0.892948 0.0323943 0.0217204
0.522865 0.1 -0.825 1.00355 0.0126711 -0.0433044
0.67013 0.1 0.7125 0.987787 0.0146434 0.0560424
0.67013 0.1 -0.7125 0.98774 0.0146516 -0.0559342
0.871687 0.1 -0.45 0.94016 0.0226376 -0.0626646
0.871687 0.1 0.45 0.940207 0.0226354 0.0628529
0.467897 0.1 0.8625 1.0077 0.0122585 0.0386328
0.467897 0.1 -0.8625 1.00768 0.0122645 -0.03857
0.714971 0.1 -0.675 0.980762 0.0157144 -0.0596564
0.714971 0.1 0.675 0.980812 0.0157057 0.0597785
0.93886 0.1 -0.3 0.91236 0.0282822 -0.051286
0.93886 0.1 0.3 0.912397 0.0282965 0.0515084
0.150379 0.1 0.975 1.01087 0.0143574 0.0129697
0.150379 0.1 -0.975 1.01086 0.0143575 -0.0129531
0.969689 0.1 -0.1875 0.89612 0.0318532 -0.0354103
0.969689 0.1 0.1875 0.896143 0.0318669 0.0356406
0.411108 0.1 0.9 1.01055 0.0121577 0.0338756
0.756813 0.1 0.6375 0.973408 0.0168246 0.0631022
0.756814 0.1 -0.6375 0.973355 0.0168331 -0.0629651
0.990306 0.1 -2.19732e-17 0.885751 0.0341147 0.000118896
0 0.1 0.99299 1 0 0
0 0.1 -0.99299 1 0 0
0.411108 0.1 -0.903998 1.01038 0.0121869 -0.033859
0.990306 0.1 -0.075 0.88659 0.0339736 -0.0147894
0.990306 0.1 0.075 0.886598 0.0339799 0.0150283
0.0363518 0.1 0.99299 1.00282 0.00712118 0.00357984
0.0363518 0.1 -0.99299 1.00282 0.00712057 -0.00357525
0.90582 0.1 -0.4125 0.929506 0.0246476 -0.0627988
0.905821 0.1 0.4125 0.929551 0.0246495 0.0630009
0.797314 0.1 -0.6 0.96499 0.0182968 -0.0658638
0.797314 0.1 0.6 0.965044 0.01829 0.0660141
0.350249 0.1 0.9375 1.01316 0.0121033 0.028793
0.350249 0.1 -0.9375 1.01314 0.0121075 -0.0287553
0.990306 0.1 0.15 0.889116 0.0335605 0.0296383
0.990306 0.1 -0.15 0.889098 0.0335497 -0.0293998
0.969689 0.1 -0.2625 0.900766 0.0310684 -0.0486002
0.969689 0.1 0.2625 0.900805 0.0310849 0.0488317
0.835106 0.1 -0.5625 0.956137 0.0198356 -0.068289
0.835106 0.1 0.5625 0.956193 0.0198291 0.0684527
0.93886 0.1 -0.375 0.918329 0.027301 -0.0621928
0.93886 0.1 0.375 0.918373 0.0273107 0.0624112
0.075776 0.1 1.0125 1.00593 0.0149877 0.00746182
0.075776 0.1 -1.0125 1.00593 0.0149864 -0.00745221
0.990306 0.1 -0.225 0.893198 0.0328464 -0.0434083
0.990306 0.1 0.225 0.893231 0.0328627 0.0436453
0.287374 0.1 0.975 1.01454 0.0128544 0.0237862
0.287374 0.1 -0.975 1.01453 0.0128558 -0.0237562
0.871687 0.1 -0.525 0.94633 0.0216803 -0.0700828
0.871687 0.1 0.525 0.946387 0.0216768 0.0702617
1.02149 0.1 -0.0369628 0.874415 0.0373223 -0.00781237
1.02149 0.1 0.0369628 0.874415 0.03733 0.00798212
0.969689 0.1 -0.3375 0.906744 0.0300466 -0.0608128
0.969689 0.1 0.3375 0.906787 0.0300648 0.0610442
1.02149 0.1 -0.110888 0.876212 0.0370111 -0.0234491
1.02149 0.1 0.110888 0.876213 0.0370233 0.0236232
0.90582 0.1 0.4875 0.936116 0.023613 0.0715257
0.90582 0.1 -0.4875 0.936059 0.0236122 -0.0713311
0.623803 0.1 0.819003 0.995765 0.013504 0.054535
0 0.1 1.03201 1 0 0
0 0.1 -1.03201 1 0 0
0.0363518 0.1 1.03201 1.00282 0.00712118 0.00357984
0.0363518 0.1 -1.03201 1.00282 0.00712057 -0.00357525
0.67013 0.1 -0.7875 0.991271 0.0140996 -0.0584784
0.67013 0.1 0.7875 0.99132 0.0140926 0.0585744
0.623803 0.1 -0.825 0.996601 0.0133803 -0.0540552
0.990306 0.1 -0.3 0.898761 0.0318852 -0.0565313
0.990306 0.1 0.3 0.898805 0.0319045 0.056768
0.219992 0.1 -1.0125 1.01576 0.013694 -0.0184393
0.219993 0.1 1.0125 1.01576 0.0136937 0.0184613
0.574156 0.1 0.8625 1.00158 0.0127061 0.0494106
0.574157 0.1 -0.8625 1.00155 0.0127107 -0.0493335
0.714971 0.1 -0.75 0.984902 0.01508 -0.0627598
0.714971 0.1 0.75 0.984956 0.0150709 0.0628703
1.02149 0.1 0.184814 0.879776 0.0363995 0.0387951
1.02149 0.1 -0.184814 0.879771 0.0363776 -0.0386189
0.756814 0.1 -0.7125 0.978092 0.0161196 -0.0667099
0.756814 0.1 0.7125 0.978149 0.0161079 0.0668357
0.522865 0.1 0.9 1.00554 0.0123106 0.0446454
0.93886 0.1 -0.45 0.925183 0.0261653 -0.0719024
0.93886 0.1 0.45 0.925239 0.0261706 0.0721135
1.04168 0.1 0 0.867397 0.0394797 0.000127465
1.04168 0.1 -0.0729162 0.868309 0.0393116 -0.0160573
1.04168 0.1 0.0729162 0.868319 0.0393214 0.0163141
0.522865 0.1 -0.903998 1.00527 0.0123551 -0.0445979
0.797314 0.1 -0.675 0.970366 0.0174795 -0.0703394
0.797314 0.1 0.675 0.970425 0.0174702 0.0704805
0.467897 0.1 0.9375 1.0092 0.0119613 0.0395992
0.467897 0.1 -0.9375 1.00918 0.0119671 -0.0395482
0 0.1 1.05 1 0 0
0 0.1 -1.05 1 0 0
0.835106 0.1 -0.6375 0.962124 0.0189166 -0.0735875
0.835106 0.1 0.6375 0.962184 0.0189104 0.0737426
1.04168 0.1 -0.145832 0.871038 0.0388127 -0.0319257
1.04168 0.1 0.145832 0.87106 0.0388286 0.0321845
1.02149 0.1 -0.25874 0.88497 0.0354522 -0.053007
1.02149 0.1 0.25874 0.884985 0.0354772 0.0531865
0.969689 0.1 -0.4125 0.913806 0.028824 -0.0718108
0.969689 0.1 0.4125 0.913861 0.0288354 0.0720366
0.411108 0.1 0.975 1.01169 0.0119077 0.0345811
0.411108 0.1 -0.975 1.01167 0.01191 -0.0345381
0.871687 0.1 -0.6 0.952861 0.0206482 -0.0762992
0.871687 0.1 0.6 0.952924 0.0206446 0.076468
1.0579 0.1 -0.0360525 0.861899 0.0412207 -0.00830392
1.0579 0.1 0.0360525 0.86189 0.0412312 0.00830376
0.990306 0.1 -0.375 0.905591 0.0306916 -0.0685209
0.990306 0.1 0.375 0.905644 0.0307094 0.0687551
0.150379 0.1 1.05 1.01105 0.0142906 0.0131515
0.150379 0.1 -1.05 1.01104 0.0142899 -0.0131363
1.0579 0.1 0.108157 0.863734 0.0408961 0.0247566
1.0579 0.1 -0.108157 0.863763 0.0408746 -0.0247478
1.04168 0.1 -0.218749 0.875508 0.0379894 -0.0471616
1.04168 0.1 0.218749 0.875546 0.0380096 0.0474195
0.90582 0.1 -0.5625 0.943094 0.0224769 -0.078556
0.90582 0.1 0.5625 0.943158 0.0224748 0.0787393
0 0.1 -1.06799 1 0 0
0 0.1 1.06799 1 0 0
0.0363518 0.1 -1.06799 1.00282 0.00710961 -0.00360929
0.0363518 0.1 1.06799 1.00282 0.00710929 0.00361371
0.350249 0.1 1.0125 1.01393 0.0119013 0.0292886
0.350249 0.1 -1.0125 1.01392 0.0119009 -0.0292533
1.0579 0.1 -0.180262 0.867445 0.0401769 -0.0407109
1.0579 0.1 0.180262 0.867403 0.0402116 0.0407311
1.02149 0.1 -0.332665 0.891657 0.0342484 -0.066339
1.02149 0.1 0.332665 0.891675 0.0342808 0.0665216
0.93886 0.1 -0.525 0.9327 0.0249092 -0.080302
0.93886 0.1 0.525 0.932766 0.0249115 0.0805027
1.08012 0.1 5.49329e-18 0.853827 0.0439716 5.69969e-05
1.04168 0.1 -0.291665 0.881585 0.0368641 -0.061465
1.04168 0.1 0.291665 0.881638 0.0368883 0.0617198
1.08012 0.1 0.0709941 0.85477 0.0438004 0.0171058
1.08012 0.1 -0.0709941 0.854775 0.0437847 -0.0169879
0.969689 0.1 -0.4875 0.921726 0.0274628 -0.0814358
0.96969 0.1 0.4875 0.921792 0.02747 0.0816569
1.0579 0.1 0.252367 0.872783 0.0391977 0.0559078
1.0579 0.1 -0.252367 0.872832 0.039158 -0.0558747
0.990306 0.1 -0.45 0.913445 0.0293154 -0.0791651
0.990306 0.1 0.45 0.913508 0.0293276 0.079394
0.287374 0.1 -1.05 1.01508 0.0126992 -0.0240742
0.287374 0.1 1.05 1.01509 0.0126997 0.0241017
0.714971 0.1 0.821002 0.988696 0.0144914 0.0651387
1.08012 0.1 -0.141988 0.857599 0.0432359 -0.0337087
1.08012 0.1 0.141988 0.85759 0.0432625 0.0338348
0.075776 0.1 1.0875 1.00594 0.0149635 0.00753228
0.075776 0.1 -1.0875 1.00594 0.0149641 -0.00752303
0.714971 0.1 -0.825 0.988993 0.0144419 -0.0650591
0.756813 0.1 -0.7875 0.982811 0.0153941 -0.0695505
0.756814 0.1 0.7875 0.982875 0.0153847 0.0696621
0.67013 0.1 -0.8625 0.994731 0.013547 -0.0603133
0.67013 0.1 0.8625 0.994781 0.0135442 0.0604026
0.797314 0.1 -0.75 0.975776 0.0166476 -0.0738058
0.797314 0.1 0.75 0.975842 0.0166363 0.073934
0.623803 0.1 0.9 0.999539 0.0128968 0.0555754
0.835106 0.1 -0.7125 0.968215 0.0179772 -0.0777645
0.835106 0.1 0.7125 0.968281 0.0179664 0.0779105
0.623803 0.1 -0.903998 0.999154 0.0129557 -0.0555056
0.574156 0.1 0.9375 1.00392 0.0122967 0.0505135
0.574156 0.1 -0.9375 1.00388 0.0123022 -0.0504467
1.02149 0.1 -0.406591 0.89959 0.0328084 -0.078373
1.02149 0.1 0.406591 0.899612 0.032838 0.078561
1.08012 0.1 -0.212982 0.862226 0.0423324 -0.049785
1.08012 0.1 0.212982 0.862219 0.0423655 0.0499185
1.10076 0.1 -0.0349809 0.845956 0.0466985 -0.00866887
1.10076 0.1 0.0349809 0.845962 0.0467083 0.00894377
0.871687 0.1 -0.675 0.959592 0.0195812 -0.0812952
0.871687 0.1 0.675 0.959661 0.0195761 0.0814548
1.04168 0.1 -0.364581 0.889079 0.0354635 -0.0745729
1.04168 0.1 0.364581 0.889142 0.0354904 0.0748251
1.10076 0.1 -0.104943 0.847875 0.0463195 -0.0261174
1.10076 0.1 0.104943 0.847893 0.0463376 0.026398
0.522865 0.1 0.975 1.00742 0.0119605 0.045465
0.522865 0.1 -0.975 1.00739 0.0119641 -0.0454081
1.0579 0.1 -0.324472 0.879773 0.0378318 -0.0699554
1.0579 0.1 0.324472 0.879715 0.0378833 0.0700023
0 0.1 -1.10701 1 0 0
0 0.1 1.10701 1 0 0
0.0363518 0.1 1.10701 1.00282 0.00710929 0.00361371
0.0363518 0.1 -1.10701 1.00282 0.00710961 -0.00360929
0.90582 0.1 0.6375 0.950502 0.0212816 0.0846465
0.905821 0.1 -0.6375 0.950431 0.0212815 -0.0844741
0.219992 0.1 1.0875 1.0161 0.0135892 0.0186384
0.219992 0.1 -1.0875 1.01609 0.0135871 -0.018619