# kMean  POINT_DATA 63840
# x  y  z  kMean
0 0.5 3.39583e-17 0.00375
0 0.5 -0.00617931 0.00375
0 0.5 0.00617931 0.00375
0.0124865 0.5 -0.00617931 0.0037504
0.0124865 0.5 0.00617931 0.00375046
0 0.5 -0.0688207 0.00375
0 0.5 0.0688207 0.00375
0.0124865 0.5 -0.0688207 0.0037504
0.0124865 0.5 0.0688207 0.00375046
0 0.5 -0.075 0.00375
0 0.5 0.075 0.00375
0 0.5 -0.0811793 0.00375
0 0.5 0.0811793 0.00375
0.0124865 0.5 -0.0811793 0.00375036
0.0124865 0.5 0.0811793 0.00375051
0.075776 0.5 -0.0375 0.00375247
0.075776 0.5 0.0375 0.00375277
0.075776 0.5 -0.1125 0.00375221
0.075776 0.5 0.1125 0.0037531
0 0.5 -0.143821 0.00375
0 0.5 0.143821 0.00375
0.0124865 0.5 -0.143821 0.00375036
0.0124865 0.5 0.143821 0.00375051
0 0.5 -0.15 0.00375
0 0.5 0.15 0.00375
0.151149 0.5 -0.00137318 0.00375522
0 0.5 -0.156179 0.00375
0 0.5 0.156179 0.00375
0.0124865 0.5 -0.156179 0.00375033
0.0124865 0.5 0.156179 0.00375057
0.151149 0.5 0.075 0.00375576
0.151149 0.5 -0.075 0.00375479
0.075776 0.5 -0.1875 0.00375202
0.075776 0.5 0.1875 0.00375344
0.151149 0.5 0.15 0.00375637
0.151149 0.5 -0.15 0.00375447
0 0.5 -0.218821 0.00375
0 0.5 0.218821 0.00375
0.0124865 0.5 -0.218821 0.00375033
0.0124865 0.5 0.218821 0.00375057
0.219992 0.5 0.0375 0.00375799
0.219993 0.5 -0.0375 0.00375732
0 0.5 -0.225 0.00375
0 0.5 0.225 0.00375
0 0.5 -0.231179 0.00375
0 0.5 0.231179 0.00375
0.0124865 0.5 -0.231179 0.00375031
0.0124865 0.5 0.231179 0.00375063
0.219992 0.5 0.1125 0.00375881
0.219993 0.5 -0.1125 0.00375684
0.151149 0.5 -0.225 0.00375425
0.151149 0.5 0.225 0.00375703
0.075776 0.5 -0.2625 0.0037519
0.075776 0.5 0.2625 0.00375379
0.288069 0.5 -0.00137318 0.00376241
0.219992 0.5 0.1875 0.00375973
0.219993 0.5 -0.1875 0.0037565
0 0.5 0.293821 0.00375
0 0.5 -0.293821 0.00375
0.0124865 0.5 -0.293821 0.00375031
0.0124865 0.5 0.293821 0.00375063
0.288069 0.5 -0.075 0.00376184
0.288069 0.5 0.075 0.00376316
0 0.5 -0.3 0.00375
0 0.5 0.3 0.00375
0 0.5 0.306179 0.00375
0 0.5 -0.306179 0.00375
0.0124865 0.5 -0.306179 0.0037503
0.0124865 0.5 0.306179 0.00375068
0.288069 0.5 -0.15 0.0037614
0.288069 0.5 0.15 0.00376406
0.151149 0.5 -0.3 0.00375413
0.151149 0.5 0.3 0.0037577
0.219992 0.5 -0.2625 0.00375628
0.219992 0.5 0.2625 0.0037607
0.075776 0.5 0.3375 0.00375411
0.075776 0.5 -0.3375 0.00375186
0.350249 0.5 -0.0375 0.00376656
0.350249 0.5 0.0375 0.0037672
0.288069 0.5 -0.225 0.00376108
0.288069 0.5 0.225 0.00376508
0.350249 0.5 0.1125 0.00376802
0.350249 0.5 -0.1125 0.00376602
0 0.5 0.368821 0.00375
0 0.5 -0.368821 0.00375
0.0124865 0.5 -0.368821 0.0037503
0.0124865 0.5 0.368821 0.00375068
0 0.5 -0.375 0.00375
0 0.5 0.375 0.00375
0 0.5 -0.381179 0.00375
0 0.5 0.381179 0.00375
0.0124865 0.5 -0.381179 0.0037503
0.0124865 0.5 0.381179 0.00375073
0.350249 0.5 -0.1875 0.00376562
0.350249 0.5 0.1875 0.00376905
0.219992 0.5 -0.3375 0.00375619
0.219992 0.5 0.3375 0.00376169
0.151149 0.5 -0.375 0.00375409
0.151149 0.5 0.375 0.00375835
0.411736 0.5 -0.00137318 0.00377427
0.288069 0.5 -0.3 0.00376088
0.288069 0.5 0.3 0.00376617
0.411736 0.5 -0.075 0.00377371
0.411736 0.5 0.075 0.00377499
0.075776 0.5 -0.4125 0.00375184
0.075776 0.5 0.4125 0.00375441
0.350249 0.5 -0.2625 0.00376532
0.350249 0.5 0.2625 0.00377022
0.411736 0.5 -0.15 0.0037732
0.411736 0.5 0.15 0.00377583
0 0.5 -0.443821 0.00375
0 0.5 0.443821 0.00375
0.0124865 0.5 -0.443821 0.0037503
0.0124865 0.5 0.443821 0.00375073
0 0.5 -0.45 0.00375
0 0.5 0.45 0.00375
0 0.5 -0.456179 0.00375
0 0.5 0.456179 0.00375
0.0124865 0.5 -0.456179 0.00375031
0.0124865 0.5 0.456179 0.00375077
0.219992 0.5 -0.4125 0.00375619
0.219993 0.5 0.4125 0.00376265
0.411736 0.5 -0.225 0.00377278
0.411736 0.5 0.225 0.00377681
0.467897 0.5 0.0375 0.00378158
0.467897 0.5 -0.0375 0.00378097
0.288069 0.5 -0.375 0.00376079
0.288069 0.5 0.375 0.00376729
0.151149 0.5 -0.45 0.00375414
0.151149 0.5 0.45 0.00375896
0.467897 0.5 -0.1125 0.0037804
0.467897 0.5 0.1125 0.00378228
0.350249 0.5 0.3375 0.00377146
0.350249 0.5 -0.3375 0.00376514
0.075776 0.5 -0.4875 0.00375187
0.075776 0.5 0.4875 0.00375467
0.467897 0.5 -0.1875 0.00377989
0.467897 0.5 0.1875 0.00378307
0.411736 0.5 -0.3 0.00377244
0.411736 0.5 0.3 0.00377792
0 0.5 -0.518821 0.00375
0 0.5 0.518821 0.00375
0.0124865 0.5 0.518821 0.00375077
0.0124865 0.5 -0.518821 0.00375031
0.523432 0.5 -0.00137318 0.00379118
0 0.5 -0.525 0.00375
0 0.5 0.525 0.00375
0.523432 0.5 -0.075 0.00379061
0.523432 0.5 0.075 0.00379186
0 0.5 -0.531179 0.00375
0 0.5 0.531179 0.00375
0.0124865 0.5 -0.531179 0.00375032
0.0124865 0.5 0.531179 0.00375081
0.288069 0.5 -0.45 0.00376084
0.288069 0.5 0.45 0.00376837
0.219992 0.5 -0.4875 0.00375635
0.219993 0.5 0.4875 0.00376355
0.467897 0.5 -0.2625 0.00377943
0.467897 0.5 0.2625 0.00378404
0.350249 0.5 -0.4125 0.00376505
0.350249 0.5 0.4125 0.0037727
0.523432 0.5 -0.15 0.00378997
0.523432 0.5 0.15 0.00379251
0.151149 0.5 -0.525 0.00375428
0.151149 0.5 0.525 0.00375952
0.411736 0.5 -0.375 0.00377218
0.411736 0.5 0.375 0.0037791
0.075776 0.5 -0.5625 0.00375196
0.075776 0.5 0.5625 0.00375488
0.523432 0.5 -0.225 0.00378934
0.523432 0.5 0.225 0.00379323
0.574156 0.5 -0.0375 0.00380032
0.574156 0.5 0.0375 0.00380094
0.467897 0.5 0.3375 0.00378513
0.467897 0.5 -0.3375 0.00377901
0.574156 0.5 -0.1125 0.00379962
0.574156 0.5 0.1125 0.00380152
0 0.5 -0.593821 0.00375
0 0.5 0.593821 0.00375
0.0124865 0.5 -0.593821 0.00375032
0.0124865 0.5 0.593821 0.00375081
0.288069 0.5 -0.525 0.00376104
0.288069 0.5 0.525 0.00376939
0 0.5 -0.6 0.00375
0 0.5 0.6 0.00375
0.350249 0.5 -0.4875 0.00376519
0.350249 0.5 0.4875 0.00377391
0.523432 0.5 -0.3 0.00378871
0.523432 0.5 0.3 0.00379404
0.219992 0.5 -0.5625 0.00375664
0.219992 0.5 0.5625 0.00376436
0.574156 0.5 -0.1875 0.00379887
0.574156 0.5 0.1875 0.00380207
0 0.5 -0.606179 0.00375
0 0.5 0.606179 0.00375
0.0124865 0.5 -0.606179 0.00375034
0.0124865 0.5 0.606179 0.00375083
0.411736 0.5 -0.45 0.00377207
0.411736 0.5 0.45 0.00378028
0.151149 0.5 -0.6 0.00375449
0.151149 0.5 0.6 0.00376
0.62168 0.5 2.64545e-17 0.00381211
0.467897 0.5 0.4125 0.00378627
0.467897 0.5 -0.4125 0.00377868
0.624316 0.5 0.0729402 0.00381343
0.624316 0.5 -0.075 0.00381205
0.574156 0.5 -0.2625 0.00379808
0.574157 0.5 0.2625 0.00380264
0.075776 0.5 -0.6375 0.00375208
0.075776 0.5 0.6375 0.00375506
0.624316 0.5 -0.15 0.00381115
0.624316 0.5 0.15 0.00381393
0.523432 0.5 -0.375 0.0037881
0.523432 0.5 0.375 0.00379494
0.350249 0.5 -0.5625 0.00376542
0.350249 0.5 0.5625 0.00377504
0.624316 0.5 -0.225 0.00381013
0.624316 0.5 0.225 0.00381433
0.288069 0.5 0.6 0.0037703
0.288069 0.5 -0.6 0.00376131
0.574156 0.5 -0.3375 0.00379725
0.574156 0.5 0.3375 0.0038033
0.411736 0.5 -0.525 0.00377207
0.411736 0.5 0.525 0.00378142
0 0.5 -0.668821 0.00375
0 0.5 0.668821 0.00375
0.0124865 0.5 -0.668821 0.00375034
0.0124865 0.5 0.668821 0.00375083
0.67013 0.5 0.0375 0.00382474
0.67013 0.5 -0.0375 0.00382399
0.219993 0.5 -0.6375 0.00375697
0.219993 0.5 0.6375 0.00376504
0 0.5 -0.675 0.00375
0 0.5 0.675 0.00375
0.467897 0.5 0.4875 0.00378741
0.467897 0.5 -0.4875 0.00377852
0.67013 0.5 -0.1125 0.00382302
0.67013 0.5 0.1125 0.00382526
0 0.5 -0.681179 0.00375
0 0.5 0.681179 0.00375
0.0124865 0.5 -0.681179 0.00375036
0.0124865 0.5 0.681179 0.00375086
0.523432 0.5 -0.45 0.00378757
0.523432 0.5 0.45 0.00379588
0.151149 0.5 -0.675 0.00375473
0.151149 0.5 0.675 0.00376039
0.624316 0.5 -0.3 0.00380902
0.624316 0.5 0.3 0.00381472
0.67013 0.5 0.1875 0.00382559
0.67013 0.5 -0.1875 0.00382185
0.574156 0.5 -0.4125 0.00379643
0.574157 0.5 0.4125 0.00380404
0.708171 0.5 1.88651e-17 0.0038362
0.075776 0.5 -0.7125 0.00375221
0.075776 0.5 0.7125 0.00375518
0.715434 0.5 0.0736268 0.00383887
0.715434 0.5 -0.075 0.00383735
0.67013 0.5 0.2625 0.00382579
0.67013 0.5 -0.2625 0.00382051
0.350249 0.5 -0.6375 0.00376564
0.350249 0.5 0.6375 0.00377606
0.411736 0.5 -0.6 0.00377207
0.411736 0.5 0.6 0.00378248
0.624316 0.5 -0.375 0.00380783
0.624316 0.5 0.375 0.00381512
0.715434 0.5 -0.15 0.00383601
0.715434 0.5 0.15 0.00383955
0.467897 0.5 -0.5625 0.00377834
0.467897 0.5 0.5625 0.0037885
0.288069 0.5 -0.675 0.00376158
0.288069 0.5 0.675 0.00377108
0.523432 0.5 -0.525 0.00378704
0.523432 0.5 0.525 0.00379679
0 0.5 -0.743821 0.00375
0 0.5 0.743821 0.00375
0.0124865 0.5 -0.743821 0.00375036
0.0124865 0.5 0.743821 0.00375086
0.219992 0.5 0.7125 0.0037656
0.219992 0.5 -0.7125 0.00375732
0.715434 0.5 -0.225 0.00383441
0.715434 0.5 0.225 0.00383969
0 0.5 -0.75 0.00375
0 0.5 0.75 0.00375
0.67013 0.5 0.3375 0.00382592
0.67013 0.5 -0.3375 0.00381904
0.574156 0.5 -0.4875 0.00379564
0.574156 0.5 0.4875 0.00380478
0 0.5 -0.756179 0.00375
0 0.5 0.756179 0.00375
0.0124865 0.5 -0.756179 0.00375038
0.0124865 0.5 0.756179 0.00375087
0.756813 0.5 -0.0375 0.00385126
0.756813 0.5 0.0375 0.0038523
0.151149 0.5 -0.75 0.00375497
0.151149 0.5 0.75 0.00376069
0.756813 0.5 -0.1125 0.00384983
0.756813 0.5 0.1125 0.0038529
0.624316 0.5 -0.45 0.00380658
0.624316 0.5 0.45 0.00381554
0.715434 0.5 -0.3 0.00383259
0.715434 0.5 0.3 0.00383963
0.756813 0.5 0.1875 0.00385309
0.756813 0.5 -0.1875 0.00384804
0.67013 0.5 -0.4125 0.00381745
0.67013 0.5 0.4125 0.00382605
0.411736 0.5 -0.675 0.00377203
0.411736 0.5 0.675 0.00378341
0.467897 0.5 0.6375 0.00378949
0.467897 0.5 -0.6375 0.00377809
0.075776 0.5 -0.7875 0.00375234
0.075776 0.5 0.7875 0.00375526
0.350249 0.5 -0.7125 0.00376585
0.350249 0.5 0.7125 0.00377692
0.523432 0.5 -0.6 0.00378643
0.523432 0.5 0.6 0.00379765
0.797732 0.5 2.68882e-17 0.00386721
0.756813 0.5 -0.2625 0.00384596
0.756814 0.5 0.2625 0.00385295
0.797732 0.5 0.0736268 0.00386811
0.797732 0.5 -0.075 0.0038657
0.288069 0.5 -0.75 0.00376185
0.288069 0.5 0.75 0.00377172
0.574156 0.5 -0.5625 0.00379471
0.574157 0.5 0.5625 0.0038055
0.715434 0.5 -0.375 0.00383056
0.715434 0.5 0.375 0.00383944
0.797732 0.5 -0.15 0.00386372
0.797732 0.5 0.15 0.00386865
0.624316 0.5 -0.525 0.00380521
0.624316 0.5 0.525 0.00381595
0.219992 0.5 -0.7875 0.00375766
0.219992 0.5 0.7875 0.00376602
0 0.5 -0.818821 0.00375
0 0.5 0.818821 0.00375
0.0124865 0.5 0.818821 0.00375087
0.0124865 0.5 -0.818821 0.00375038
0 0.5 -0.825 0.00375
0 0.5 0.825 0.00375
0.756813 0.5 0.3375 0.00385254
0.756814 0.5 -0.3375 0.00384361
0.67013 0.5 -0.4875 0.0038157
0.67013 0.5 0.4875 0.00382616
0.797732 0.5 -0.225 0.00386133
0.797732 0.5 0.225 0.00386859
0 0.5 -0.831179 0.00375
0 0.5 0.831179 0.00375
0.0124865 0.5 -0.831179 0.0037504
0.0124865 0.5 0.831179 0.00375088
0.835106 0.5 0.0375 0.00388271
0.835106 0.5 -0.0375 0.00388123
0.151149 0.5 -0.825 0.0037552
0.151149 0.5 0.825 0.0037609
0.835106 0.5 0.1125 0.00388353
0.835106 0.5 -0.1125 0.00387916
0.715434 0.5 -0.45 0.0038283
0.715434 0.5 0.45 0.00383919
0.797732 0.5 -0.3 0.00385858
0.797732 0.5 0.3 0.00386812
0.467897 0.5 0.7125 0.00379035
0.467897 0.5 -0.7125 0.00377778
0.523432 0.5 -0.675 0.00378573
0.523432 0.5 0.675 0.0037984
0.411736 0.5 -0.75 0.00377194
0.411736 0.5 0.75 0.00378418
0.835106 0.5 -0.1875 0.00387657
0.835106 0.5 0.1875 0.0038837
0.574156 0.5 -0.6375 0.00379367
0.574157 0.5 0.6375 0.00380614
0.350249 0.5 -0.7875 0.00376602
0.350249 0.5 0.7875 0.00377761
0.756813 0.5 -0.4125 0.00384097
0.756814 0.5 0.4125 0.00385199
0.075776 0.5 -0.8625 0.00375246
0.075776 0.5 0.8625 0.0037553
0.624316 0.5 0.6 0.00381629
0.624316 0.5 -0.6 0.00380367
0.872064 0.5 5.91974e-17 0.00389871
0.870122 0.5 0.075 0.00389912
0.288069 0.5 -0.825 0.00376208
0.288069 0.5 0.825 0.0037722
0.67013 0.5 -0.5625 0.00381374
0.67013 0.5 0.5625 0.00382623
0.872064 0.5 -0.075 0.00389658
0.835106 0.5 -0.2625 0.00387353
0.835106 0.5 0.2625 0.00388328
0.797732 0.5 -0.375 0.00385547
0.797732 0.5 0.375 0.00386732
0.872064 0.5 0.14794 0.00390073
0.872064 0.5 -0.15 0.00389378
0.715434 0.5 -0.525 0.00382578
0.715434 0.5 0.525 0.00383886
0.219992 0.5 0.8625 0.0037663
0.219993 0.5 -0.8625 0.00375797
0 0.5 -0.893821 0.00375
0 0.5 0.893821 0.00375
0.0124865 0.5 -0.893821 0.0037504
0.0124865 0.5 0.893821 0.00375088
0 0.5 -0.9 0.00375
0 0.5 0.9 0.00375
0.756813 0.5 -0.4875 0.00383795
0.756813 0.5 0.4875 0.00385131
0.872064 0.5 -0.225 0.00389042
0.872064 0.5 0.225 0.0039006
0.835106 0.5 -0.3375 0.00387005
0.835106 0.5 0.3375 0.00388237
0 0.5 0.906179 0.00375
0 0.5 -0.906179 0.00375
0.0124865 0.5 -0.906179 0.00375042
0.0124865 0.5 0.906179 0.00375087
0.90582 0.5 -0.0375 0.00391377
0.90582 0.5 0.0375 0.00391584
0.151149 0.5 -0.9 0.00375541
0.151149 0.5 0.9 0.00376102
0.90582 0.5 -0.1125 0.00391089
0.905821 0.5 0.1125 0.00391704
0.523432 0.5 -0.75 0.00378494
0.523432 0.5 0.75 0.00379901
0.574156 0.5 -0.7125 0.00379251
0.574156 0.5 0.7125 0.00380667
0.797732 0.5 -0.45 0.00385193
0.797732 0.5 0.45 0.00386631
0.467897 0.5 0.7875 0.00379104
0.467897 0.5 -0.7875 0.00377739
0.624316 0.5 -0.675 0.003802
0.624316 0.5 0.675 0.00381656
0.411736 0.5 -0.825 0.00377179
0.411736 0.5 0.825 0.00378478
0.872064 0.5 0.3 0.00389978
0.872064 0.5 -0.3 0.00388653
0.67013 0.5 -0.6375 0.0038116
0.67013 0.5 0.6375 0.00382623
0.90582 0.5 0.1875 0.00391733
0.905821 0.5 -0.1875 0.00390729
0.350249 0.5 -0.8625 0.00376613
0.350249 0.5 0.8625 0.00377811
0.835106 0.5 -0.4125 0.0038661
0.835106 0.5 0.4125 0.00388109
0.715434 0.5 -0.6 0.00382306
0.715434 0.5 0.6 0.00383845
0.939201 0.5 2.75387e-17 0.00393166
0.075776 0.5 0.9375 0.00375529
0.075776 0.5 -0.9375 0.00375257
0.939111 0.5 0.075 0.00393372
0.939201 0.5 -0.075 0.00392874
0.756813 0.5 0.5625 0.00385054
0.756814 0.5 -0.5625 0.0038347
0.90582 0.5 0.2625 0.00391675
0.905821 0.5 -0.2625 0.0039031
0.288069 0.5 -0.9 0.00376226
0.288069 0.5 0.9 0.00377251
0.872064 0.5 -0.375 0.00388211
0.872064 0.5 0.375 0.0038984
0.939201 0.5 0.148627 0.00393442
0.939201 0.5 -0.15 0.00392493
0.797732 0.5 -0.525 0.00384804
0.797732 0.5 0.525 0.00386513
0.219992 0.5 0.9375 0.00376644
0.219992 0.5 -0.9375 0.00375824
0.939201 0.5 -0.225 0.00392037
0.939201 0.5 0.225 0.0039344
0.905821 0.5 -0.3375 0.00389832
0.90582 0.5 0.3375 0.00391541
0.835106 0.5 -0.4875 0.00386163
0.835106 0.5 0.4875 0.00387959
0 0.5 0.968821 0.00375
0 0.5 -0.968821 0.00375
0.0124865 0.5 -0.968821 0.00375042
0.0124865 0.5 0.968821 0.00375087
0.969689 0.5 -0.0375 0.00394654
0.969689 0.5 0.0375 0.00394936
0.574156 0.5 -0.7875 0.00379125
0.574156 0.5 0.7875 0.00380706
0 0.5 -0.975 0.00375
0 0.5 0.975 0.00375
0.624316 0.5 -0.75 0.00380022
0.624316 0.5 0.75 0.00381671
0.969689 0.5 -0.1125 0.00394265
0.96969 0.5 0.1125 0.00395103
0.523432 0.5 -0.825 0.00378407
0.523432 0.5 0.825 0.00379946
0.67013 0.5 0.7125 0.00382614
0.67013 0.5 -0.7125 0.00380932
0 0.5 -0.981179 0.00375
0 0.5 0.981179 0.00375
0.467897 0.5 0.8625 0.00379155
0.467897 0.5 -0.8625 0.00377693
0.0124865 0.5 -0.981179 0.00375044
0.0124865 0.5 0.981179 0.00375086
0.872064 0.5 -0.45 0.00387711
0.872064 0.5 0.45 0.0038966
0.715434 0.5 -0.675 0.00382016
0.715434 0.5 0.675 0.00383796
0.939201 0.5 -0.3 0.00391515
0.939201 0.5 0.3 0.00393332
0.151149 0.5 0.975 0.00376103
0.151149 0.5 -0.975 0.00375558
0.969689 0.5 -0.1875 0.00393781
0.969689 0.5 0.1875 0.00395151
0.756813 0.5 -0.6375 0.00383122
0.756813 0.5 0.6375 0.00384966
0.411736 0.5 -0.9 0.00377157
0.411736 0.5 0.9 0.00378518
0.90582 0.5 -0.4125 0.00389287
0.90582 0.5 0.4125 0.00391343
0.995005 0.5 0.0749309 0.00396367
0.797732 0.5 -0.6 0.0038439
0.797732 0.5 0.6 0.0038638
1.00005 0.5 -8.47123e-18 0.00396388
0.350249 0.5 -0.9375 0.00376618
0.350249 0.5 0.9375 0.00377842
1.00005 0.5 -0.0749309 0.00396014
0.969689 0.5 -0.2625 0.00393223
0.969689 0.5 0.2625 0.00395082
0.835106 0.5 -0.5625 0.00385689
0.835106 0.5 0.5625 0.00387787
1.00005 0.5 -0.149862 0.00395538
0.939201 0.5 -0.375 0.00390924
0.939201 0.5 0.375 0.0039314
1.00029 0.5 0.148988 0.00396751
0.075776 0.5 -1.0125 0.00375266
0.075776 0.5 1.0125 0.00375522
0.288069 0.5 0.975 0.00377266
0.288069 0.5 -0.975 0.00376238
0.872064 0.5 -0.525 0.00387167
0.872064 0.5 0.525 0.00389449
1.00005 0.5 0.224793 0.00396793
1.00005 0.5 -0.224793 0.00394975
0.969689 0.5 0.3375 0.0039491
0.96969 0.5 -0.3375 0.00392598
1.0271 0.5 -0.0368226 0.00397953
1.0271 0.5 0.0368226 0.0039831
0.90582 0.5 0.4875 0.00391102
0.905821 0.5 -0.4875 0.00388683
1.0271 0.5 -0.110468 0.00397486
1.0271 0.5 0.110468 0.00398783
0.67013 0.5 0.7875 0.00382594
0.67013 0.5 -0.7875 0.00380693
0.624316 0.5 0.825 0.00381672
0.624316 0.5 -0.825 0.00379834
0.219993 0.5 -1.0125 0.00375846
0.219993 0.5 1.0125 0.00376641
0.574156 0.5 -0.8625 0.00378991
0.574156 0.5 0.8625 0.00380728
0.715434 0.5 -0.75 0.00381714
0.715434 0.5 0.75 0.00383737
0.756813 0.5 0.7125 0.00384869
0.756814 0.5 -0.7125 0.00382759
0.523432 0.5 -0.9 0.00378312
0.523432 0.5 0.9 0.00379971
0.939201 0.5 -0.45 0.00390258
0.939201 0.5 0.45 0.00392883
1.04168 0.5 0 0.00399036
1.0271 0.5 -0.184113 0.00396925
1.0271 0.5 0.184113 0.00398647
0 0.5 -1.04382 0.00375
0 0.5 1.04382 0.00375
0.0124865 0.5 -1.04382 0.00375044
0.0124865 0.5 1.04382 0.00375086
1.00005 0.5 -0.299723 0.00394333
1.00005 0.5 0.299723 0.00396676
1.04168 0.5 -0.0729162 0.00398603
1.04168 0.5 0.0729162 0.00399351
0.797732 0.5 -0.675 0.00383957
0.797732 0.5 0.675 0.00386234
0.467897 0.5 0.9375 0.00379184
0.467897 0.5 -0.9375 0.0037764
0 0.5 -1.05 0.00375
0 0.5 1.05 0.00375
0.835106 0.5 -0.6375 0.00385188
0.835106 0.5 0.6375 0.00387595
1.04168 0.5 -0.145832 0.00398068
1.04168 0.5 0.145832 0.00399539
0.969689 0.5 -0.4125 0.00391885
0.96969 0.5 0.4125 0.0039465
0 0.5 -1.05618 0.00375
0 0.5 1.05618 0.00375
0.0124865 0.5 -1.05618 0.00375045
0.0124865 0.5 1.05618 0.00375085
1.05695 0.5 -0.0360764 0.00399745
1.05695 0.5 0.0360764 0.00400145
0.411736 0.5 -0.975 0.00377128
0.411736 0.5 0.975 0.00378541
0.872064 0.5 -0.6 0.00386591
0.872064 0.5 0.6 0.00389213
1.0271 0.5 -0.257759 0.00396281
1.0271 0.5 0.257759 0.00398617
0.151149 0.5 -1.05 0.00375571
0.151149 0.5 1.05 0.00376092
1.05695 0.5 0.108229 0.00400612
1.05695 0.5 -0.108229 0.00399238
1.04168 0.5 -0.218749 0.00397446
1.04168 0.5 0.218749 0.00399597
0.90582 0.5 -0.5625 0.00388039
0.905821 0.5 0.5625 0.00390827
1.00005 0.5 -0.374654 0.00393594
1.00005 0.5 0.374654 0.00396443
0.350249 0.5 1.0125 0.00377859
0.350249 0.5 -1.0125 0.00376615
1.05695 0.5 -0.180382 0.00398638
1.05695 0.5 0.180382 0.0040056
1.07319 0.5 0.0709442 0.00401459
0.939201 0.5 -0.525 0.00389533
0.939201 0.5 0.525 0.00392577
1.0271 0.5 -0.331404 0.00395541
1.0271 0.5 0.331404 0.0039844
1.08112 0.5 3.23815e-17 0.00401545
1.04168 0.5 -0.291665 0.00396732
1.04168 0.5 0.291665 0.00399513
1.08112 0.5 -0.0709442 0.00401055
0.969689 0.5 -0.4875 0.00391092
0.96969 0.5 0.4875 0.00394321
1.05695 0.5 0.252535 0.00400572
1.05695 0.5 -0.252535 0.00397953
0.288069 0.5 -1.05 0.00376244
0.288069 0.5 1.05 0.00377262
0.075776 0.5 -1.0875 0.00375273
0.075776 0.5 1.0875 0.00375511
1.08112 0.5 -0.141888 0.00400468
1.08145 0.5 0.140165 0.00402107
0.715434 0.5 0.825 0.00383666
0.715434 0.5 -0.825 0.00381404
0.756813 0.5 0.7875 0.00384762
0.756814 0.5 -0.7875 0.00382386
0.67013 0.5 -0.8625 0.00380448
0.67013 0.5 0.8625 0.0038256
0.797732 0.5 -0.75 0.00383512
0.797732 0.5 0.75 0.00386078
0.624316 0.5 -0.9 0.0037964
0.624316 0.5 0.9 0.00381656
1.00005 0.5 -0.449585 0.00392754
1.00005 0.5 0.449585 0.00396116
0.835106 0.5 -0.7125 0.00384672
0.835106 0.5 0.7125 0.00387392
0.574156 0.5 -0.9375 0.00378851
0.574157 0.5 0.9375 0.0038073
1.10076 0.5 -0.0349809 0.0040263
1.10076 0.5 0.0349809 0.00403097
1.08112 0.5 -0.212832 0.0039979
1.08112 0.5 0.212832 0.00402273
0.872064 0.5 -0.675 0.00385993
0.872064 0.5 0.675 0.00388955
1.04168 0.5 -0.364581 0.00395903
1.04168 0.5 0.364581 0.00399287
1.0271 0.5 0.405049 0.00398141
1.0271 0.5 -0.405049 0.00394676
1.05695 0.5 -0.324688 0.00397163
1.05695 0.5 0.324688 0.00400432
1.10076 0.5 -0.104943 0.00402062
1.10076 0.5 0.104943 0.00403434
0.523432 0.5 0.975 0.00379979
0.523432 0.5 -0.975 0.0037821
0.90582 0.5 0.6375 0.00390525
0.905821 0.5 -0.6375 0.00387362
0.219992 0.5 1.0875 0.00376619
0.219992 0.5 -1.0875 0.00375861
1.11376 0.5 3.81639e-17 0.00403761
0.939201 0.5 0.6 0.00392226
0.939201 0.5 -0.6 0.00388774
1.10076 0.5 -0.174905 0.00401402
1.10076 0.5 0.174905 0.0040364
0.467897 0.5 -1.0125 0.00377578
0.467897 0.5 1.0125 0.00379199
1.11376 0.5 -0.0693118 0.00403223
1.11376 0.5 0.0693118 0.00404184
1.08112 0.5 0.283777 0.00402246
1.08112 0.5 -0.283777 0.00399011
0 0.5 -1.11882 0.00375
0 0.5 1.11882 0.00375
0.0124865 0.5 -1.11882 0.00375045
0.0124865 0.5 1.11882 0.00375085
0.969689 0.5 -0.5625 0.00390241
0.969689 0.5 0.5625 0.00393945
1.11376 0.5 0.138624 0.00404493
1.11376 0.5 -0.138624 0.00402589
0 0.5 -1.125 0.00375
0 0.5 1.125 0.00375
1.10076 0.5 0.244866 0.00403719
1.10076 0.5 -0.244866 0.00400647
0.411736 0.5 -1.05 0.00377091
0.411736 0.5 1.05 0.00378546
1.05695 0.5 -0.396841 0.00396242
1.05695 0.5 0.396841 0.00400153
1.00005 0.5 -0.524516 0.00391843
1.00005 0.5 0.524516 0.00395721
1.04168 0.5 -0.437497 0.0039496
1.04168 0.5 0.437497 0.00398942
0 0.5 -1.13118 0.00375
0 0.5 1.13118 0.00375
0.0124865 0.5 -1.13118 0.00375046
0.0124865 0.5 1.13118 0.00375082
1.11376 0.5 -0.207935 0.00401859
1.11376 0.5 0.207935 0.00404638
1.0271 0.5 -0.478694 0.00393713
1.0271 0.5 0.478694 0.00397742
0.151149 0.5 -1.125 0.0037558
0.151149 0.5 1.125 0.00376071
1.08112 0.5 -0.354722 0.00398111
1.08112 0.5 0.354722 0.0040207
1.13882 0.5 -0.0340295 0.00405265
1.13882 0.5 0.0340295 0.0040579
0.350249 0.5 -1.0875 0.00376604
0.350249 0.5 1.0875 0.00377849
1.13882 0.5 -0.102088 0.00404638
1.13882 0.5 0.102088 0.0040631
1.10076 0.5 -0.314829 0.00399776
1.10076 0.5 0.314829 0.00403649
0.756813 0.5 -0.8625 0.00382009
0.756814 0.5 0.8625 0.00384645
0.797732 0.5 -0.825 0.0038306
0.797732 0.5 0.825 0.00385912
1.11376 0.5 -0.277247 0.00401022
1.11376 0.5 0.277247 0.00404663
0.835106 0.5 0.7875 0.0038718
0.835106 0.5 -0.7875 0.00384148
0.715434 0.5 -0.9 0.00381089
0.715434 0.5 0.9 0.00383582
0.872064 0.5 -0.75 0.00385385
0.872064 0.5 0.75 0.00388681
1.13882 0.5 0.170147 0.00406454
1.13882 0.5 -0.170147 0.00403916
0.67013 0.5 -0.9375 0.00380197
0.67013 0.5 0.9375 0.00382508
0.905821 0.5 -0.7125 0.0038667
0.905821 0.5 0.7125 0.00390196
1.05695 0.5 0.468994 0.00399757
1.05695 0.5 -0.468994 0.00395226
0.939201 0.5 -0.675 0.00388
0.939201 0.5 0.675 0.00391845
0.624316 0.5 0.975 0.00381623
0.624316 0.5 -0.975 0.00379441
1.04168 0.5 -0.510414 0.00393941
1.04168 0.5 0.510414 0.00398499
0.969689 0.5 -0.6375 0.0038938
0.96969 0.5 0.6375 0.00393499
0.288069 0.5 -1.125 0.00376242
0.288069 0.5 1.125 0.00377236
1.16179 0.5 5.78241e-19 0.00407262
1.08112 0.5 0.425666 0.00401756
1.08112 0.5 -0.425666 0.00397102
1.13882 0.5 -0.238206 0.00403091
1.13882 0.5 0.238206 0.00406589
1.16179 0.5 0.0669104 0.0040807
1.16179 0.5 -0.0669104 0.00406646
0.574156 0.5 -1.0125 0.00378703
0.574156 0.5 1.0125 0.00380718
0.075776 0.5 -1.1625 0.00375278
0.075776 0.5 1.1625 0.00375496
1.00005 0.5 -0.599447 0.00390909
1.00005 0.5 0.599447 0.00395258
1.10076 0.5 0.384791 0.00403427
1.10076 0.5 -0.384791 0.00398779
1.0271 0.5 -0.55234 0.00392699
1.0271 0.5 0.55234 0.00397274
1.11376 0.5 -0.346559 0.00400063
1.11376 0.5 0.346559 0.00404539
1.16179 0.5 -0.133821 0.0040593
1.16179 0.5 0.133821 0.00408186
0.523432 0.5 -1.05 0.00378101
0.523432 0.5 1.05 0.00379973
1.17463 0.5 -0.0331343 0.00407866
1.17463 0.5 0.0331343 0.00408451
1.17463 0.5 -0.0994029 0.00407181
1.17463 0.5 0.0994029 0.00408911
1.16179 0.5 -0.200731 0.0040511
1.16179 0.5 0.200731 0.00408375
1.13882 0.5 -0.306265 0.00402145
1.13882 0.5 0.306265 0.00406586
0.219992 0.5 -1.1625 0.0037587
0.219992 0.5 1.1625 0.00376584
0.467897 0.5 -1.0875 0.00377509
0.467897 0.5 1.0875 0.00379196
1.17463 0.5 0.165672 0.00409234
1.17463 0.5 -0.165672 0.00406394
1.05695 0.5 -0.541147 0.00394153
1.05695 0.5 0.541147 0.00399258
1.18772 0.5 -5.78241e-19 0.00409175
1.11376 0.5 -0.41587 0.00399003
1.11376 0.5 0.41587 0.00404267
1.18772 0.5 -0.065614 0.00408516
1.18772 0.5 0.065614 0.00409752
1.08112 0.5 -0.49661 0.00396021
1.08112 0.5 0.49661 0.00401314
1.10076 0.5 -0.454752 0.00397696
1.10076 0.5 0.454752 0.00403067
1.18534 0.5 0.118202 0.00410137
1.16179 0.5 -0.267642 0.00404175
1.16179 0.5 0.267642 0.0040848
0 0.5 -1.19382 0.00375
0 0.5 1.19382 0.00375
0.0124865 0.5 1.19382 0.00375082
0.0124865 0.5 -1.19382 0.00375046
1.04168 0.5 -0.58333 0.00392897
1.04168 0.5 0.58333 0.00397968
1.18772 0.5 -0.131228 0.00407754
1.17463 0.5 -0.23194 0.00405497
1.17463 0.5 0.23194 0.00409423
0.411736 0.5 -1.125 0.00377046
0.411736 0.5 1.125 0.00378525
1.13882 0.5 -0.374324 0.00401083
1.13882 0.5 0.374324 0.00406427
0 0.5 -1.2 0.00375
0 0.5 1.2 0.00375
0.905821 0.5 0.7875 0.00389849
0.905821 0.5 -0.7875 0.00385974
0.872064 0.5 -0.825 0.00384775
0.872064 0.5 0.825 0.00388398
0.835106 0.5 0.8625 0.00386958
0.835106 0.5 -0.8625 0.00383623
0.939201 0.5 -0.75 0.00387226
0.939201 0.5 0.75 0.00391445
0.797732 0.5 -0.9 0.00382607
0.797732 0.5 0.9 0.00385736
1.0271 0.5 0.625985 0.00396725
1.0271 0.5 -0.625985 0.00391692
0.969689 0.5 0.7125 0.00393057
0.96969 0.5 -0.7125 0.00388523
1.18772 0.5 -0.196842 0.00406883
1.18772 0.5 0.196842 0.00410415
0.756814 0.5 -0.9375 0.0038163
0.756814 0.5 0.9375 0.00384517
0 0.5 1.20618 0.00375
0 0.5 -1.20618 0.00375
1.00005 0.5 -0.674378 0.00389974
1.00005 0.5 0.674378 0.0039476
0.0124865 0.5 1.20618 0.00375079
0.0124865 0.5 -1.20618 0.00375046
1.16179 0.5 -0.334552 0.00403124
1.16179 0.5 0.334552 0.0040844
0.715434 0.5 0.975 0.00383485
0.715434 0.5 -0.975 0.00380773
0.151149 0.5 -1.2 0.00375585
0.151149 0.5 1.2 0.00376041
1.20942 0.5 0.0322645 0.00411256
1.20942 0.5 -0.0322645 0.00410563
1.17463 0.5 -0.298209 0.00404476
1.17463 0.5 0.298209 0.00409479
1.20942 0.5 -0.0967935 0.00409812
1.20942 0.5 0.0967935 0.00411733
0.350249 0.5 -1.1625 0.00376585
0.350249 0.5 1.1625 0.00377812
0.67013 0.5 1.0125 0.00382444
0.67013 0.5 -1.0125 0.00379944
1.11376 0.5 0.485183 0.00403848
1.11376 0.5 -0.485183 0.00397878
1.18772 0.5 0.262456 0.00410559
1.18772 0.5 -0.262456 0.00405894
1.10076 0.5 -0.524714 0.00396563
1.10076 0.5 0.524714 0.0040256
1.20942 0.5 -0.161322 0.00408952
1.20942 0.5 0.161322 0.00412118
1.08112 0.5 -0.567554 0.00394907
1.08112 0.5 0.567554 0.00400746
0.624316 0.5 -1.05 0.00379237
0.624316 0.5 1.05 0.00381578
1.13882 0.5 -0.442383 0.00399945
1.13882 0.5 0.442383 0.00406118
1.05695 0.5 0.6133 0.0039866
1.05695 0.5 -0.6133 0.00393077
1.16179 0.5 -0.401463 0.00401983
1.16179 0.5 0.401463 0.00408244
0.574156 0.5 -1.0875 0.00378551
0.574156 0.5 1.0875 0.00380694
1.17463 0.5 0.364477 0.00409382
1.17463 0.5 -0.364477 0.00403349
1.20942 0.5 -0.225851 0.00407975
1.20942 0.5 0.225851 0.00412364
1.23036 0.5 -1.32995e-17 0.00412664
1.2294 0.5 0.0634819 0.00413319
1.04168 0.5 -0.656246 0.00391847
1.04168 0.5 0.656246 0.0039738
1.23036 0.5 -0.0634819 0.00411919
1.18772 0.5 0.32807 0.0041056
1.18772 0.5 -0.32807 0.00404793
0.288069 0.5 -1.2 0.00376233
0.288069 0.5 1.2 0.0037719
1.23036 0.5 -0.126964 0.00411063
1.23036 0.5 0.126964 0.00413789
0.075776 0.5 -1.2375 0.0037528
0.075776 0.5 1.2375 0.00375476
0.523432 0.5 -1.125 0.00377986
0.523432 0.5 1.125 0.00379944
1.0271 0.5 -0.69963 0.00390679
1.0271 0.5 0.69963 0.00396164
1.24274 0.5 0.0314313 0.00414023
1.24274 0.5 -0.0314313 0.00413311
1.20942 0.5 0.29038 0.00412475
1.20942 0.5 -0.29038 0.00406877
1.11376 0.5 -0.554494 0.00396718
1.11376 0.5 0.554494 0.00403275
1.23036 0.5 -0.190445 0.0041009
1.23036 0.5 0.190445 0.00414145
1.24274 0.5 -0.0942942 0.00412488
1.24274 0.5 0.0942942 0.00414612
1.13882 0.5 0.510442 0.00405652
1.13882 0.5 -0.510442 0.00398768
0.969689 0.5 -0.7875 0.00387678
0.969689 0.5 0.7875 0.0039258
1.00005 0.5 -0.749309 0.00389046
1.00005 0.5 0.749309 0.00394245
0.939201 0.5 -0.825 0.00386458
0.939201 0.5 0.825 0.00391029
0.90582 0.5 0.8625 0.00389504
0.90582 0.5 -0.8625 0.00385286
1.17463 0.5 -0.430746 0.00402154
1.17463 0.5 0.430746 0.00409127
1.10076 0.5 -0.594676 0.00395412
1.10076 0.5 0.594676 0.0040191
1.18772 0.5 -0.393684 0.00403608
1.18772 0.5 0.393684 0.00410407
1.24274 0.5 -0.157157 0.00411548
1.24274 0.5 0.157157 0.00415059
1.16179 0.5 -0.468373 0.0040079
1.16179 0.5 0.468373 0.00407893
0.467897 0.5 -1.1625 0.00377432
0.467897 0.5 1.1625 0.0037916
0.872064 0.5 -0.9 0.00384171
0.872064 0.5 0.9 0.00388109
1.25401 0.5 2.08167e-17 0.00414586
0.835106 0.5 0.9375 0.00386726
0.835106 0.5 -0.9375 0.00383101
1.25401 0.5 -0.0622994 0.00413793
1.25401 0.5 0.0622994 0.00415305
1.08112 0.5 -0.638498 0.00393756
1.08112 0.5 0.638498 0.00400083
1.23036 0.5 -0.253927 0.00408999
1.23036 0.5 0.253927 0.00414361
0.219992 0.5 1.2375 0.00376536
0.219992 0.5 -1.2375 0.00375873
1.25309 0.5 0.121964 0.00415801
1.05695 0.5 0.685452 0.00398027
1.05695 0.5 -0.685452 0.00391978
0.797732 0.5 0.975 0.0038555
0.797732 0.5 -0.975 0.00382159
1.25401 0.5 -0.124599 0.00412883
1.20942 0.5 -0.354909 0.00405682
1.20942 0.5 0.354909 0.00412439
1.24274 0.5 -0.220019 0.00410487
1.24274 0.5 0.220019 0.00415364
0.756814 0.5 -1.0125 0.00381253
0.756813 0.5 1.0125 0.00384376
1.25401 0.5 -0.186898 0.00411853
1.25401 0.5 0.186898 0.00416198
0.411736 0.5 -1.2 0.00376994
0.411736 0.5 1.2 0.00378473
0 0.5 -1.26882 0.00375
0 0.5 1.26882 0.00375
0.0124865 0.5 1.26882 0.00375079
0.0124865 0.5 -1.26882 0.00375046
0.715434 0.5 -1.05 0.00380456
0.715434 0.5 1.05 0.00383377
1.23036 0.5 -0.31741 0.00407804
1.23036 0.5 0.31741 0.00414435
1.04168 0.5 -0.729162 0.00390796
1.04168 0.5 0.729162 0.00396772
1.18772 0.5 -0.459298 0.00402378
1.18772 0.5 0.459298 0.00410094
1.24274 0.5 -0.282882 0.00409311
1.24274 0.5 0.282882 0.00415528
0 0.5 -1.275 0.00375
0 0.5 1.275 0.00375
1.27472 0.5 -0.0306319 0.00416124
1.27472 0.5 0.0306319 0.00416907
1.17463 0.5 0.497015 0.00408715
1.17463 0.5 -0.497015 0.0040093
1.11376 0.5 -0.623806 0.00395499
1.11376 0.5 0.623806 0.00402565
1.13882 0.5 -0.578501 0.00397557
1.13882 0.5 0.578501 0.00405008
0.67013 0.5 -1.0875 0.00379688
0.67013 0.5 1.0875 0.00382369
1.27472 0.5 -0.0918959 0.0041522
1.27472 0.5 0.0918959 0.00417233
1.25401 0.5 -0.249197 0.00410706
1.25401 0.5 0.249197 0.00416452
1.16179 0.5 -0.535284 0.00399563
1.16179 0.5 0.535284 0.00407373
1.20942 0.5 -0.419438 0.0040443
1.20942 0.5 0.419438 0.00412242
0 0.5 -1.28118 0.00375
0 0.5 1.28118 0.00375
0.0124865 0.5 1.28118 0.00375075
0.0124865 0.5 -1.28118 0.00375047
1.27472 0.5 0.15316 0.00418076