# kMean  POINT_DATA 63140
# x  y  z  kMean
0 0.1 0 0.00375
0 0.1 -0.0179898 0.00375
0 0.1 0.0179898 0.00375
0.0363518 0.1 0.0179898 0.00374714
0.0363518 0.1 -0.0179898 0.00374682
0 0.1 -0.0570102 0.00375
0 0.1 0.0570102 0.00375
0.0363518 0.1 0.0570102 0.00374714
0.0363518 0.1 -0.0570102 0.00374682
0 0.1 -0.075 0.00375
0 0.1 0.075 0.00375
0.075776 0.1 -0.0375 0.00374309
0.075776 0.1 0.0375 0.00374373
0 0.1 -0.0929898 0.00375
0 0.1 0.0929898 0.00375
0.0363518 0.1 -0.0929898 0.00374659
0.0363518 0.1 0.0929898 0.00374753
0 0.1 -0.13201 0.00375
0 0.1 0.13201 0.00375
0.075776 0.1 -0.1125 0.00374263
0.075776 0.1 0.1125 0.00374452
0.0363518 0.1 -0.13201 0.00374659
0.0363518 0.1 0.13201 0.00374753
0 0.1 -0.15 0.00375
0 0.1 0.15 0.00375
0.150379 0.1 -2.22623e-17 0.00373444
0 0.1 -0.16799 0.00375
0 0.1 0.16799 0.00375
0.150379 0.1 -0.075 0.00373378
0.150379 0.1 0.075 0.00373555
0.0363518 0.1 -0.16799 0.0037465
0.0363518 0.1 0.16799 0.00374798
0.075776 0.1 -0.1875 0.00374243
0.075776 0.1 0.1875 0.00374545
0 0.1 -0.20701 0.00375
0 0.1 0.20701 0.00375
0.0363518 0.1 -0.20701 0.0037465
0.0363518 0.1 0.20701 0.00374798
0.150379 0.1 -0.15 0.00373357
0.150379 0.1 0.15 0.00373696
0.219993 0.1 -0.0375 0.00372532
0.219993 0.1 0.0375 0.00372644
0 0.1 -0.225 0.00375
0 0.1 0.225 0.00375
0 0.1 -0.24299 0.00375
0 0.1 0.24299 0.00375
0.0363518 0.1 0.24299 0.00374847
0.0363518 0.1 -0.24299 0.00374657
0.219993 0.1 -0.1125 0.00372492
0.219993 0.1 0.1125 0.00372829
0.150379 0.1 -0.225 0.0037339
0.150379 0.1 0.225 0.00373847
0.075776 0.1 -0.2625 0.00374259
0.075776 0.1 0.2625 0.00374646
0 0.1 -0.28201 0.00375
0 0.1 0.28201 0.00375
0.0363518 0.1 -0.28201 0.00374657
0.0363518 0.1 0.28201 0.00374847
0.287374 0.1 -2.89121e-19 0.00371719
0.219992 0.1 0.1875 0.0037303
0.219992 0.1 -0.1875 0.00372513
0.287374 0.1 -0.075 0.00371677
0.287374 0.1 0.075 0.00371833
0 0.1 -0.3 0.00375
0 0.1 0.3 0.00375
0 0.1 0.31799 0.00375
0 0.1 -0.31799 0.00375
0.0363518 0.1 -0.31799 0.00374679
0.0363518 0.1 0.31799 0.00374896
0.287374 0.1 0.15 0.00372003
0.287374 0.1 -0.15 0.00371706
0.150379 0.1 -0.3 0.00373482
0.150379 0.1 0.3 0.00374001
0.219993 0.1 0.2625 0.00373235
0.219993 0.1 -0.2625 0.00372622
0.075776 0.1 -0.3375 0.00374303
0.075776 0.1 0.3375 0.00374746
0.350249 0.1 -0.0375 0.00370862
0.350249 0.1 0.0375 0.00370908
0 0.1 -0.35701 0.00375
0 0.1 0.35701 0.00375
0.0363518 0.1 -0.35701 0.00374679
0.0363518 0.1 0.35701 0.00374896
0.287374 0.1 -0.225 0.00371808
0.287374 0.1 0.225 0.00372205
0.350249 0.1 -0.1125 0.00370892
0.350249 0.1 0.1125 0.00371026
0 0.1 -0.375 0.00375
0 0.1 0.375 0.00375
0 0.1 -0.39299 0.00375
0 0.1 0.39299 0.00375
0.0363518 0.1 -0.39299 0.0037471
0.0363518 0.1 0.39299 0.00374938
0.350249 0.1 -0.1875 0.00370994
0.350249 0.1 0.1875 0.00371204
0.219992 0.1 -0.3375 0.00372815
0.219992 0.1 0.3375 0.00373439
0.150379 0.1 0.375 0.00374148
0.150379 0.1 -0.375 0.00373616
0.411108 0.1 4.33681e-19 0.00370154
0.287374 0.1 -0.3 0.0037198
0.287374 0.1 0.3 0.00372425
0.411108 0.1 -0.075 0.00370182
0.411108 0.1 0.075 0.00370195
0.075776 0.1 -0.4125 0.00374367
0.075776 0.1 0.4125 0.00374834
0 0.1 0.43201 0.00375
0 0.1 -0.43201 0.00375
0.0363518 0.1 0.43201 0.00374938
0.0363518 0.1 -0.43201 0.0037471
0.411108 0.1 -0.15 0.00370277
0.411108 0.1 0.15 0.00370303
0.350249 0.1 -0.2625 0.00371167
0.350249 0.1 0.2625 0.00371428
0 0.1 -0.45 0.00375
0 0.1 0.45 0.00375
0.219992 0.1 0.4125 0.00373632
0.219992 0.1 -0.4125 0.00373043
0 0.1 -0.46799 0.00375
0 0.1 0.46799 0.00375
0.411108 0.1 -0.225 0.00370429
0.411108 0.1 0.225 0.0037047
0.467897 0.1 -0.0375 0.00369465
0.467897 0.1 0.0375 0.00369433
0.0363518 0.1 0.46799 0.00374973
0.0363518 0.1 -0.46799 0.00374744
0.287374 0.1 -0.375 0.00372186
0.287374 0.1 0.375 0.00372648
0.150379 0.1 0.45 0.00374271
0.150379 0.1 -0.45 0.00373734
0.467897 0.1 0.1125 0.0036947
0.467897 0.1 -0.1125 0.00369561
0.350249 0.1 -0.3375 0.00371377
0.350249 0.1 0.3375 0.00371673
0.075776 0.1 -0.4875 0.00374435
0.075776 0.1 0.4875 0.00374904
0.467897 0.1 0.1875 0.00369573
0.467897 0.1 -0.1875 0.00369711
0 0.1 -0.50701 0.00375
0 0.1 0.50701 0.00375
0.0363518 0.1 -0.50701 0.00374744
0.0363518 0.1 0.50701 0.00374973
0.411108 0.1 0.3 0.00370683
0.411108 0.1 -0.3 0.00370614
0.522865 0.1 1.41031e-17 0.00368949
0 0.1 -0.525 0.00375
0 0.1 0.525 0.00375
0.522865 0.1 -0.075 0.00369038
0.522865 0.1 0.075 0.00368914
0.287374 0.1 0.45 0.00372845
0.287374 0.1 -0.45 0.00372349
0.219992 0.1 0.4875 0.00373766
0.219992 0.1 -0.4875 0.0037315
0.467897 0.1 -0.2625 0.00369892
0.467897 0.1 0.2625 0.00369739
0.350249 0.1 -0.4125 0.00371572
0.350249 0.1 0.4125 0.00371918
0 0.1 -0.54299 0.00375
0 0.1 0.54299 0.00375
0.522865 0.1 0.15 0.0036894
0.522865 0.1 -0.15 0.0036917
0.0363518 0.1 0.54299 0.00375001
0.0363518 0.1 -0.54299 0.00374773
0.150379 0.1 -0.525 0.00373817
0.150379 0.1 0.525 0.00374362
0.411108 0.1 -0.375 0.00370795
0.411108 0.1 0.375 0.00370921
0.075776 0.1 -0.5625 0.00374495
0.075776 0.1 0.5625 0.00374962
0.522865 0.1 -0.225 0.00369325
0.522865 0.1 0.225 0.00369028
0.574156 0.1 0.0375 0.00368414
0.574157 0.1 -0.0375 0.00368509
0.467897 0.1 -0.3375 0.00370068
0.467897 0.1 0.3375 0.00369956
0 0.1 -0.58201 0.00375
0 0.1 0.58201 0.00375
0.0363518 0.1 -0.58201 0.00374773
0.0363518 0.1 0.58201 0.00375001
0.574157 0.1 -0.1125 0.00368641
0.574157 0.1 0.1125 0.00368369
0.287374 0.1 -0.525 0.00372452
0.287374 0.1 0.525 0.00372999
0 0.1 -0.6 0.00375
0 0.1 0.6 0.00375
0.350249 0.1 0.4875 0.00372132
0.350249 0.1 -0.4875 0.00371693
0.522865 0.1 -0.3 0.00369478
0.522865 0.1 0.3 0.00369174
0.219992 0.1 -0.5625 0.00373246
0.219992 0.1 0.5625 0.00373864
0.574156 0.1 -0.1875 0.00368791
0.574156 0.1 0.1875 0.00368381
0.411108 0.1 0.45 0.00371157
0.411108 0.1 -0.45 0.00370934
0 0.1 -0.61799 0.00375
0 0.1 0.61799 0.00375
0.150379 0.1 -0.6 0.00373889
0.150379 0.1 0.6 0.00374434
0.0363518 0.1 -0.61799 0.003748
0.0363518 0.1 0.61799 0.00375026
0.467897 0.1 -0.4125 0.00370211
0.467897 0.1 0.4125 0.00370199
0.623803 0.1 2.34188e-17 0.00368196
0.623803 0.1 0.075 0.00368101
0.623803 0.1 -0.075 0.00368318
0.574156 0.1 0.2625 0.00368453
0.574156 0.1 -0.2625 0.00368932
0.623803 0.1 0.15 0.00368046
0.623803 0.1 -0.15 0.00368449
0.075776 0.1 0.6375 0.00375014
0.075776 0.1 -0.6375 0.0037455
0.522865 0.1 -0.375 0.00369604
0.522865 0.1 0.375 0.00369367
0 0.1 0.65701 0.00375
0 0.1 -0.65701 0.00375
0.0363518 0.1 0.65701 0.00375026
0.0363518 0.1 -0.65701 0.003748
0.350249 0.1 0.5625 0.003723
0.350249 0.1 -0.5625 0.00371779
0.623803 0.1 0.225 0.00368041
0.623803 0.1 -0.225 0.00368568
0.287374 0.1 -0.6 0.00372532
0.287374 0.1 0.6 0.00373118
0.574157 0.1 -0.3375 0.00369045
0.574157 0.1 0.3375 0.00368585
0.411108 0.1 0.525 0.00371366
0.411108 0.1 -0.525 0.00371024
0.67013 0.1 0.0375 0.00367866
0.67013 0.1 -0.0375 0.00367996
0.219992 0.1 -0.6375 0.00373323
0.219993 0.1 0.6375 0.00373942
0 0.1 -0.675 0.00375
0 0.1 0.675 0.00375
0.467897 0.1 -0.4875 0.00370309
0.467897 0.1 0.4875 0.00370441
0.67013 0.1 -0.1125 0.00368127
0.67013 0.1 0.1125 0.00367757
0.522865 0.1 0.45 0.00369585
0.522865 0.1 -0.45 0.00369691
0.150379 0.1 0.675 0.00374495
0.150379 0.1 -0.675 0.00373945
0.623803 0.1 0.3 0.0036809
0.623803 0.1 -0.3 0.00368657
0 0.1 -0.69299 0.00375
0 0.1 0.69299 0.00375
0.0363518 0.1 -0.69299 0.00374822
0.0363518 0.1 0.69299 0.00375047
0.67013 0.1 -0.1875 0.00368239
0.67013 0.1 0.1875 0.00367682
0.574156 0.1 0.4125 0.00368767
0.574157 0.1 -0.4125 0.00369119
0.714971 0.1 -2.8382e-17 0.00367868
0.075776 0.1 -0.7125 0.00374595
0.075776 0.1 0.7125 0.00375058
0.714971 0.1 -0.075 0.00367989
0.714971 0.1 0.075 0.00367739
0.67013 0.1 0.2625 0.00367654
0.67013 0.1 -0.2625 0.00368314
0.411108 0.1 -0.6 0.00371084
0.411108 0.1 0.6 0.00371536
0.350249 0.1 0.6375 0.00372428
0.350249 0.1 -0.6375 0.00371842
0.623803 0.1 0.375 0.00368193
0.623803 0.1 -0.375 0.00368706
0.714971 0.1 -0.15 0.00368085
0.714971 0.1 0.15 0.0036762
0.467897 0.1 -0.5625 0.00370366
0.467897 0.1 0.5625 0.00370652
0 0.1 -0.73201 0.00375
0 0.1 0.73201 0.00375
0.0363518 0.1 0.73201 0.00375047
0.0363518 0.1 -0.73201 0.00374822
0.287374 0.1 -0.675 0.00372588
0.287374 0.1 0.675 0.00373214
0.522865 0.1 -0.525 0.00369738
0.522865 0.1 0.525 0.00369801
0.219993 0.1 -0.7125 0.00373368
0.219992 0.1 0.7125 0.00374015
0.714971 0.1 -0.225 0.0036814
0.714971 0.1 0.225 0.00367529
0 0.1 0.75 0.00375
0 0.1 -0.75 0.00375
0.67013 0.1 -0.3375 0.00368344
0.67013 0.1 0.3375 0.00367679
0.574156 0.1 -0.4875 0.00369156
0.574157 0.1 0.4875 0.00368975
0.756813 0.1 0.0375 0.00367729
0.756814 0.1 -0.0375 0.0036786
0.150379 0.1 0.746002 0.00374557
0.150379 0.1 -0.75 0.0037399
0.756813 0.1 -0.1125 0.00367954
0.756813 0.1 0.1125 0.00367583
0 0.1 0.76799 0.00375
0 0.1 -0.76799 0.00375
0.0363518 0.1 0.76799 0.00375065
0.0363518 0.1 -0.76799 0.00374843
0.623803 0.1 -0.45 0.00368714
0.623803 0.1 0.45 0.0036834
0.714971 0.1 -0.3 0.00368147
0.714971 0.1 0.3 0.00367476
0.756814 0.1 -0.1875 0.00368001
0.756814 0.1 0.1875 0.00367441
0.67013 0.1 -0.4125 0.00368324
0.67013 0.1 0.4125 0.00367758
0.411108 0.1 0.675 0.00371671
0.411108 0.1 -0.675 0.00371123
0.467897 0.1 0.6375 0.00370823
0.467897 0.1 -0.6375 0.003704
0.075776 0.1 0.7875 0.00375094
0.075776 0.1 -0.7875 0.00374638
0.350249 0.1 -0.7125 0.00371881
0.350249 0.1 0.7125 0.00372532
0.522865 0.1 -0.6 0.00369752
0.522865 0.1 0.6 0.00369991
0.797314 0.1 -3.59473e-17 0.0036791
0.287374 0.1 0.746002 0.00373307
0.797314 0.1 -0.075 0.00368
0.797314 0.1 0.075 0.00367777
0.756814 0.1 -0.2625 0.00367992
0.756814 0.1 0.2625 0.00367321
0.287374 0.1 -0.75 0.00372631
0.574156 0.1 -0.5625 0.00369153
0.574156 0.1 0.5625 0.00369179
0 0.1 0.80701 0.00375
0 0.1 -0.80701 0.00375
0.714971 0.1 -0.375 0.00368102
0.714971 0.1 0.375 0.0036747
0.0363518 0.1 0.80701 0.00375065
0.0363518 0.1 -0.80701 0.00374843
0.797314 0.1 -0.15 0.00368034
0.797314 0.1 0.15 0.00367619
0.623803 0.1 -0.525 0.00368687
0.623803 0.1 0.525 0.00368508
0.219992 0.1 0.7875 0.00374082
0.219992 0.1 -0.7875 0.00373415
0.149792 0.1 0.80701 0.00374589
0 0.1 0.825 0.00375
0 0.1 -0.825 0.00375
0.797314 0.1 -0.225 0.00368007
0.797314 0.1 0.225 0.00367458
0.756813 0.1 -0.3375 0.00367927
0.756813 0.1 0.3375 0.00367236
0.67013 0.1 0.4875 0.00367879
0.67013 0.1 -0.4875 0.0036827
0.835106 0.1 -0.0375 0.00368057
0.835106 0.1 0.0375 0.00367955
0.150379 0.1 -0.825 0.00374038
0.835106 0.1 -0.1125 0.00368093
0.835106 0.1 0.1125 0.00367801
0 0.1 -0.84299 0.00375
0 0.1 0.84299 0.00375
0.0363518 0.1 -0.84299 0.00374863
0.0363518 0.1 0.84299 0.00375078
0.714971 0.1 -0.45 0.00368012
0.714971 0.1 0.45 0.00367511
0.411108 0.1 0.746002 0.0037179
0.797314 0.1 -0.3 0.00367919
0.797314 0.1 0.3 0.00367309
0.467897 0.1 -0.7125 0.00370421
0.467897 0.1 0.7125 0.00370958
0.522865 0.1 0.675 0.00370143
0.522865 0.1 -0.675 0.0036975
0.411108 0.1 -0.75 0.00371153
0.835106 0.1 -0.1875 0.00368056
0.835107 0.1 0.1875 0.00367615
0.286844 0.1 0.80701 0.00373357
0.574156 0.1 0.6375 0.00369352
0.574157 0.1 -0.6375 0.00369126
0.350249 0.1 -0.7875 0.0037192
0.350249 0.1 0.7875 0.00372622
0.756813 0.1 -0.4125 0.00367805
0.756814 0.1 0.4125 0.00367197
0.623803 0.1 -0.6 0.00368632
0.623803 0.1 0.6 0.00368673
0.075776 0.1 0.8625 0.00375121
0.075776 0.1 -0.8625 0.0037468
0.871687 0.1 -3.2767e-18 0.00368268
0.287374 0.1 -0.825 0.00372679
0.871687 0.1 -0.075 0.00368303
0.871687 0.1 0.075 0.00368157
0.67013 0.1 -0.5625 0.00368186
0.67013 0.1 0.5625 0.00368022
0.835106 0.1 0.2625 0.00367418
0.835106 0.1 -0.2625 0.0036795
0.797314 0.1 -0.375 0.00367772
0.797314 0.1 0.375 0.0036719
0 0.1 -0.88201 0.00375
0 0.1 0.88201 0.00375
0.0363518 0.1 0.88201 0.00375078
0.0363518 0.1 -0.88201 0.00374863
0.871687 0.1 0.15 0.00367987
0.871687 0.1 -0.15 0.00368257
0.714971 0.1 0.525 0.00367589
0.714971 0.1 -0.525 0.00367889
0.219993 0.1 0.8625 0.00374138
0.219992 0.1 -0.8625 0.00373474
0 0.1 0.9 0.00375
0 0.1 -0.9 0.00375
0.756813 0.1 0.4875 0.00367205
0.756814 0.1 -0.4875 0.00367646
0.871687 0.1 0.225 0.00367777
0.871687 0.1 -0.225 0.00368134
0.835106 0.1 -0.3375 0.00367779
0.835106 0.1 0.3375 0.0036723
0.41063 0.1 0.80701 0.00371856
0.90582 0.1 -0.0375 0.0036853
0.905821 0.1 0.0375 0.00368479
0.522865 0.1 0.746002 0.00370271
0.150379 0.1 0.9 0.00374633
0.90582 0.1 0.1125 0.00368342
0.905821 0.1 -0.1125 0.00368485
0.522865 0.1 -0.75 0.00369744
0.574156 0.1 0.7125 0.00369484
0.574156 0.1 -0.7125 0.00369093
0.797314 0.1 -0.45 0.00367576
0.797314 0.1 0.45 0.00367112
0.467897 0.1 -0.7875 0.00370442
0.467897 0.1 0.7875 0.00371068
0.150379 0.1 -0.903998 0.00374069
0 0.1 0.91799 0.00375
0 0.1 -0.91799 0.00375
0.0363518 0.1 0.91799 0.00375087
0.0363518 0.1 -0.91799 0.00374882
0.623803 0.1 0.675 0.0036881
0.623803 0.1 -0.675 0.00368561
0.411108 0.1 -0.825 0.00371184
0.871687 0.1 0.3 0.00367549
0.871687 0.1 -0.3 0.00367942
0.67013 0.1 -0.6375 0.00368081
0.67013 0.1 0.6375 0.0036816
0.90582 0.1 -0.1875 0.00368349
0.90582 0.1 0.1875 0.00368138
0.350249 0.1 0.8625 0.00372701
0.350249 0.1 -0.8625 0.00371969
0.835106 0.1 -0.4125 0.00367553
0.835106 0.1 0.4125 0.00367069
0.714971 0.1 -0.6 0.00367741
0.714971 0.1 0.6 0.00367684
0.93886 0.1 -1.15648e-17 0.00368896
0.075776 0.1 0.9375 0.0037514
0.075776 0.1 -0.9375 0.00374719
0.93886 0.1 0.075 0.00368827
0.93886 0.1 -0.075 0.00368862
0.756813 0.1 0.5625 0.00367248
0.756814 0.1 -0.5625 0.00367454
0.905821 0.1 -0.2625 0.00368139
0.905821 0.1 0.2625 0.00367887
0.287374 0.1 0.9 0.00373432
0.287374 0.1 -0.903998 0.00372709
0.871687 0.1 0.375 0.00367324
0.871687 0.1 -0.375 0.00367685
0.93886 0.1 -0.15 0.00368728
0.93886 0.1 0.15 0.00368666
0.797314 0.1 0.525 0.00367076
0.797314 0.1 -0.525 0.00367341
0 0.1 0.95701 0.00375
0 0.1 -0.95701 0.00375
0.0363518 0.1 0.95701 0.00375087
0.0363518 0.1 -0.95701 0.00374882
0.522433 0.1 0.80701 0.00370342
0.219992 0.1 0.9375 0.00374178
0.219992 0.1 -0.9375 0.00373527
0.93886 0.1 0.225 0.00368432
0.93886 0.1 -0.225 0.0036851
0.90582 0.1 0.3375 0.00367612
0.905821 0.1 -0.3375 0.0036786
0.835106 0.1 -0.4875 0.00367281
0.835107 0.1 0.4875 0.00366953
0.969689 0.1 -0.0375 0.00369251
0.969689 0.1 0.0375 0.00369263
0.61613 0.1 0.75 0.00368912
0.574156 0.1 -0.7875 0.00369059
0.574156 0.1 0.7875 0.00369587
0 0.1 0.975 0.00375
0 0.1 -0.975 0.00375
0.623803 0.1 -0.75 0.00368485
0.969689 0.1 -0.1125 0.00369124
0.969689 0.1 0.1125 0.0036916
0.522865 0.1 -0.825 0.00369735
0.67013 0.1 0.7125 0.00368266
0.67013 0.1 -0.7125 0.00367966
0.871687 0.1 -0.45 0.00367371
0.871687 0.1 0.45 0.00367122
0.467897 0.1 0.8625 0.00371162
0.467897 0.1 -0.8625 0.0037046
0.714971 0.1 -0.675 0.00367579
0.714971 0.1 0.675 0.0036777
0.93886 0.1 -0.3 0.00368215
0.93886 0.1 0.3 0.00368147
0.150379 0.1 0.975 0.00374657
0.150379 0.1 -0.975 0.0037413
0.969689 0.1 -0.1875 0.00368899
0.969689 0.1 0.1875 0.00368959
0.411108 0.1 0.9 0.00371953
0.756813 0.1 0.6375 0.00367305
0.756814 0.1 -0.6375 0.00367246
0.990306 0.1 -2.19732e-17 0.00369275
0 0.1 0.99299 0.00375
0 0.1 -0.99299 0.00375
0.411108 0.1 -0.903998 0.00371196
0.990306 0.1 -0.075 0.00369189
0.990306 0.1 0.075 0.00369241
0.0363518 0.1 0.99299 0.00375092
0.0363518 0.1 -0.99299 0.00374899
0.90582 0.1 -0.4125 0.00367513
0.905821 0.1 0.4125 0.00367338
0.797314 0.1 -0.6 0.0036708
0.797314 0.1 0.6 0.00367067
0.350249 0.1 0.9375 0.00372767
0.350249 0.1 -0.9375 0.00372015
0.990306 0.1 0.15 0.00369095
0.990306 0.1 -0.15 0.00368994
0.969689 0.1 -0.2625 0.00368598
0.969689 0.1 0.2625 0.0036868
0.835106 0.1 -0.5625 0.0036697
0.835106 0.1 0.5625 0.00366875
0.93886 0.1 -0.375 0.0036784
0.93886 0.1 0.375 0.00367835
0.075776 0.1 1.0125 0.00375151
0.075776 0.1 -1.0125 0.00374755
0.990306 0.1 -0.225 0.00368709
0.990306 0.1 0.225 0.00368853
0.287374 0.1 0.975 0.00373477
0.287374 0.1 -0.975 0.00372776
0.871687 0.1 -0.525 0.00367012
0.871687 0.1 0.525 0.00366956
1.02149 0.1 -0.0369628 0.00369708
1.02149 0.1 0.0369628 0.00369769
0.969689 0.1 -0.3375 0.00368214
0.969689 0.1 0.3375 0.00368346
1.02149 0.1 -0.110888 0.00369525
1.02149 0.1 0.110888 0.00369704
0.90582 0.1 0.4875 0.00367085
0.90582 0.1 -0.4875 0.00367107
0.623803 0.1 0.819003 0.00368905
0 0.1 1.03201 0.00375
0 0.1 -1.03201 0.00375
0.0363518 0.1 1.03201 0.00375092
0.0363518 0.1 -1.03201 0.00374899
0.67013 0.1 -0.7875 0.00367846
0.67013 0.1 0.7875 0.00368335
0.623803 0.1 -0.825 0.00368408
0.990306 0.1 -0.3 0.0036834
0.990306 0.1 0.3 0.00368537
0.219992 0.1 -1.0125 0.00373573
0.219993 0.1 1.0125 0.00374202
0.574156 0.1 0.8625 0.00369667
0.574157 0.1 -0.8625 0.00369024
0.714971 0.1 -0.75 0.0036741
0.714971 0.1 0.75 0.00367831
1.02149 0.1 0.184814 0.0036952
1.02149 0.1 -0.184814 0.00369239
0.756814 0.1 -0.7125 0.0036703
0.756814 0.1 0.7125 0.00367354
0.522865 0.1 0.9 0.00370438
0.93886 0.1 -0.45 0.00367387
0.93886 0.1 0.45 0.00367522
1.04168 0.1 0 0.0037015
1.04168 0.1 -0.0729162 0.00370006
1.04168 0.1 0.0729162 0.00370168
0.522865 0.1 -0.903998 0.00369709
0.797314 0.1 -0.675 0.00366807
0.797314 0.1 0.675 0.00367068
0.467897 0.1 0.9375 0.00371239
0.467897 0.1 -0.9375 0.00370474
0 0.1 1.05 0.00375
0 0.1 -1.05 0.00375
0.835106 0.1 -0.6375 0.00366639
0.835106 0.1 0.6375 0.00366822
1.04168 0.1 -0.145832 0.00369747
1.04168 0.1 0.145832 0.00370058
1.02149 0.1 -0.25874 0.00368867
1.02149 0.1 0.25874 0.00369237
0.969689 0.1 -0.4125 0.00367726
0.969689 0.1 0.4125 0.00367985
0.411108 0.1 0.975 0.00372016
0.411108 0.1 -0.975 0.0037124
0.871687 0.1 -0.6 0.00366623
0.871687 0.1 0.6 0.00366825
1.0579 0.1 -0.0360525 0.00370415
1.0579 0.1 0.0360525 0.00370514
0.990306 0.1 -0.375 0.00367869
0.990306 0.1 0.375 0.0036817
0.150379 0.1 1.05 0.00374668
0.150379 0.1 -1.05 0.00374168
1.0579 0.1 0.108157 0.00370484
1.0579 0.1 -0.108157 0.00370191
1.04168 0.1 -0.218749 0.0036939
1.04168 0.1 0.218749 0.00369833
0.90582 0.1 -0.5625 0.00366662
0.90582 0.1 0.5625 0.00366872
0 0.1 -1.06799 0.00375
0 0.1 1.06799 0.00375
0.0363518 0.1 -1.06799 0.00374915
0.0363518 0.1 1.06799 0.00375093
0.350249 0.1 1.0125 0.00372816
0.350249 0.1 -1.0125 0.00372054
1.0579 0.1 -0.180262 0.00369862
1.0579 0.1 0.180262 0.00370326
1.02149 0.1 -0.332665 0.0036839
1.02149 0.1 0.332665 0.00368873
0.93886 0.1 -0.525 0.00366889
0.93886 0.1 0.525 0.00367232
1.08012 0.1 5.49329e-18 0.00371002
1.04168 0.1 -0.291665 0.00368929
1.04168 0.1 0.291665 0.00369509
1.08012 0.1 0.0709941 0.00371058
1.08012 0.1 -0.0709941 0.00370817
0.969689 0.1 -0.4875 0.00367162
0.96969 0.1 0.4875 0.00367622
1.0579 0.1 0.252367 0.00370055
1.0579 0.1 -0.252367 0.00369433
0.990306 0.1 -0.45 0.00367309
0.990306 0.1 0.45 0.00367781
0.287374 0.1 -1.05 0.00372815
0.287374 0.1 1.05 0.00373504
0.714971 0.1 0.821002 0.0036785
1.08012 0.1 -0.141988 0.00370514
1.08012 0.1 0.141988 0.00370982
0.075776 0.1 1.0875 0.00375153
0.075776 0.1 -1.0875 0.00374787
0.714971 0.1 -0.825 0.00367243
0.756813 0.1 -0.7875 0.00366809
0.756814 0.1 0.7875 0.00367374
0.67013 0.1 -0.8625 0.00367733
0.67013 0.1 0.8625 0.00368378
0.797314 0.1 -0.75 0.00366531
0.797314 0.1 0.75 0.00367059
0.623803 0.1 0.9 0.00369038
0.835106 0.1 -0.7125 0.00366306
0.835106 0.1 0.7125 0.00366775
0.623803 0.1 -0.903998 0.00368325
0.574156 0.1 0.9375 0.00369732
0.574156 0.1 -0.9375 0.00368983
1.02149 0.1 -0.406591 0.00367798
1.02149 0.1 0.406591 0.00368455
1.08012 0.1 -0.212982 0.00370101
1.08012 0.1 0.212982 0.00370781
1.10076 0.1 -0.0349809 0.00371428
1.10076 0.1 0.0349809 0.00371569
0.871687 0.1 -0.675 0.00366223
0.871687 0.1 0.675 0.00366713
1.04168 0.1 -0.364581 0.00368353
1.04168 0.1 0.364581 0.00369107
1.10076 0.1 -0.104943 0.00371159
1.10076 0.1 0.104943 0.00371579
0.522865 0.1 0.975 0.00370501
0.522865 0.1 -0.975 0.00369706
1.0579 0.1 -0.324472 0.00368884
1.0579 0.1 0.324472 0.00369689
0 0.1 -1.10701 0.00375
0 0.1 1.10701 0.00375
0.0363518 0.1 1.10701 0.00375093
0.0363518 0.1 -1.10701 0.00374915
0.90582 0.1 0.6375 0.00366694
0.905821 0.1 -0.6375 0.00366197
0.219992 0.1 1.0875 0.00374211
0.219992 0.1 -1.0875 0.00373613
0.93886 0.1 0.6 0.00366969
0.93886 0.1 -0.6 0.00366369
1.10076 0.1 -0.174905 0.00370774
1.10076 0.1 0.174905 0.00371454
0.467897 0.1 1.0125 0.00371297
0.467897 0.1 -1.0125 0.00370478
1.08012 0.1 -0.283976 0.00369571
1.08012 0.1 0.283976 0.00370467
1.11928 0.1 3.93204e-18 0.00372029
0.990306 0.1 -0.525 0.00366712
0.990306 0.1 0.525 0.00367398
0.96969 0.1 -0.5625 0.00366588
0.969689 0.1 0.5625 0.00367292
1.11928 0.1 -0.0690357 0.00371804
1.11928 0.1 0.0690357 0.00372123
0 0.1 1.125 0.00375
0 0.1 -1.125 0.00375
0.411108 0.1 -1.05 0.00371257
0.411108 0.1 1.05 0.00372057
1.10076 0.1 0.244866 0.00371203
1.10076 0.1 -0.244866 0.00370269
1.11928 0.1 -0.138072 0.00371453
1.11928 0.1 0.138072 0.00372083
1.02149 0.1 0.480517 0.00368007
1.02149 0.1 -0.480517 0.00367146
1.0579 0.1 -0.396577 0.00368225
1.0579 0.1 0.396577 0.00369249
1.04168 0.1 -0.437497 0.00367693
1.04168 0.1 0.437497 0.00368652
0.150379 0.1 1.125 0.00374668
0.150379 0.1 -1.125 0.00374202
0.714971 0.1 0.88201 0.00367645
1.08012 0.1 0.354971 0.0037006
1.08012 0.1 -0.354971 0.00368924
1.11928 0.1 -0.207107 0.00370976
1.11928 0.1 0.207107 0.00371911
0.350249 0.1 -1.0875 0.00372085
0.350249 0.1 1.0875 0.00372843
0 0.1 1.14299 0.00375
0 0.1 -1.14299 0.00375
0.0363518 0.1 1.14299 0.0037509
0.0363518 0.1 -1.14299 0.00374928
1.14316 0.1 -0.0339211 0.00372648
1.14316 0.1 0.0339211 0.00372835
0.797314 0.1 0.821002 0.00367035
1.10076 0.1 -0.314829 0.00369633
1.10076 0.1 0.314829 0.00370842
0.797314 0.1 -0.825 0.00366258
0.756814 0.1 -0.8625 0.00366598
0.756814 0.1 0.8625 0.0036736
1.14316 0.1 -0.101763 0.00372328
1.14316 0.1 0.101763 0.00372888
0.835106 0.1 -0.7875 0.00365975
0.835106 0.1 0.7875 0.00366721
0.871687 0.1 -0.75 0.00365826
0.871687 0.1 0.75 0.00366602
0.67013 0.1 0.9375 0.00368405
0.67013 0.1 -0.9375 0.00367619
0.90582 0.1 -0.7125 0.00365731
0.905821 0.1 0.7125 0.00366527
0.714971 0.1 -0.903998 0.00367085
1.11928 0.1 0.276143 0.00371614
1.11928 0.1 -0.276143 0.00370373
1.14316 0.1 0.169605 0.00372806
1.14316 0.1 -0.169605 0.00371875
0.93886 0.1 -0.675 0.00365841
0.93886 0.1 0.675 0.00366729
1.15704 0.1 0 0.00373218
1.0579 0.1 0.468682 0.0036876
1.0579 0.1 -0.468682 0.0036752
0.623803 0.1 0.975 0.00369078
0.623803 0.1 -0.975 0.00368251
0.990306 0.1 0.6 0.0036703
0.990306 0.1 -0.6 0.003661
1.15704 0.1 -0.0671479 0.00372948
1.15704 0.1 0.0671479 0.00373352
1.04168 0.1 -0.510414 0.00367007
1.04168 0.1 0.510414 0.00368172
0.969689 0.1 -0.6375 0.00365996
0.969689 0.1 0.6375 0.00366966
1.08012 0.1 0.425965 0.00369581
1.08012 0.1 -0.425965 0.00368203
0.287374 0.1 -1.125 0.00372846
0.287374 0.1 1.125 0.00373513
1.02149 0.1 -0.554443 0.00366493
1.02149 0.1 0.554443 0.00367563
0.574156 0.1 1.0125 0.00369783
0.574156 0.1 -1.0125 0.00368937
1.15704 0.1 -0.134296 0.00372541
1.15704 0.1 0.134296 0.0037335
0.075776 0.1 1.1625 0.00375148
0.075776 0.1 -1.1625 0.00374815
1.10076 0.1 -0.384791 0.00368898
1.10076 0.1 0.384791 0.00370387
1.14316 0.1 -0.237448 0.0037129
1.14316 0.1 0.237448 0.00372589
1.11928 0.1 -0.345179 0.00369659
1.11928 0.1 0.345179 0.00371209
0.522865 0.1 1.05 0.00370544
0.522865 0.1 -1.05 0.0036968
1.15704 0.1 -0.201444 0.00371997
1.15704 0.1 0.201444 0.00373211
1.1744 0.1 -0.0331401 0.00373599
1.1744 0.1 0.0331401 0.00373815
1.1744 0.1 -0.0994202 0.00373242
1.1744 0.1 0.0994202 0.00373896
0 0.1 1.18201 0.00375
0 0.1 -1.18201 0.00375
0.0363518 0.1 1.18201 0.0037509
0.0363518 0.1 -1.18201 0.00374928
0.219992 0.1 1.1625 0.00374204
0.219993 0.1 -1.1625 0.00373647
1.14316 0.1 0.30529 0.00372247
1.14316 0.1 -0.30529 0.00370581
0.467897 0.1 1.0875 0.0037133
0.467897 0.1 -1.0875 0.00370473
1.1744 0.1 -0.1657 0.00372744
1.1744 0.1 0.1657 0.00373842
1.15704 0.1 -0.268592 0.00371325
1.15704 0.1 0.268592 0.00372938
1.0579 0.1 0.540787 0.00368248
1.0579 0.1 -0.540787 0.00366809
0.796996 0.1 0.88201 0.00366989
1.08012 0.1 -0.496959 0.00367459
1.08012 0.1 0.496959 0.00369054
1.10076 0.1 0.454752 0.00369862
1.10076 0.1 -0.454752 0.00368127
1.11928 0.1 -0.414214 0.00368879
1.11928 0.1 0.414214 0.00370713
1.04168 0.1 -0.58333 0.00366301
1.04168 0.1 0.58333 0.00367685
1.1744 0.1 -0.231981 0.00372107
1.1744 0.1 0.231981 0.0037365
0.871687 0.1 0.821002 0.00366491
0.411108 0.1 1.125 0.00372076
0.411108 0.1 -1.125 0.00371263
1.19808 0.1 1.73472e-17 0.00374715
0.990306 0.1 0.675 0.00366682
0.990306 0.1 -0.675 0.00365478
1.02149 0.1 0.628368 0.00367121
1.02149 0.1 -0.628368 0.00365808
1.19808 0.1 -0.0650961 0.00374386
1.19808 0.1 0.0650961 0.00374899
0 0.1 1.2 0.00375
0 0.1 -1.2 0.00375
0.871687 0.1 -0.825 0.00365439
0.905821 0.1 -0.7875 0.00365279
0.90582 0.1 0.7875 0.00366357
0.835106 0.1 -0.8625 0.00365652
0.835106 0.1 0.8625 0.00366641
0.93886 0.1 -0.75 0.00365322
0.93886 0.1 0.75 0.00366504
1.14316 0.1 -0.373132 0.00369788
1.14316 0.1 0.373132 0.00371795
0.969689 0.1 0.7125 0.00366681
0.969689 0.1 -0.7125 0.00365408
1.15704 0.1 -0.33574 0.00370553
1.15704 0.1 0.33574 0.00372542
0.756813 0.1 0.9375 0.0036733
0.756814 0.1 -0.9375 0.00366398
1.19808 0.1 0.130192 0.00374945
1.19808 0.1 -0.130192 0.00373908
0.797314 0.1 -0.903998 0.00366013
0.714971 0.1 0.975 0.00367858
0.714971 0.1 -0.975 0.00366924
0.150379 0.1 1.2 0.00374658
0.150379 0.1 -1.2 0.00374229
1.20938 0.1 -0.0322656 0.00374935
1.20938 0.1 0.0322656 0.00375203
1.1744 0.1 -0.298261 0.00371357
1.1744 0.1 0.298261 0.00373325
1.20938 0.1 -0.0967968 0.00374517
1.20938 0.1 0.0967968 0.00375326
1.19808 0.1 -0.195288 0.00373289
1.19808 0.1 0.195288 0.00374851
0.350249 0.1 1.1625 0.00372849
0.350249 0.1 -1.1625 0.00372105
0.67013 0.1 1.0125 0.00368422
0.67013 0.1 -1.0125 0.00367501
0 0.1 1.21799 0.00375
0 0.1 -1.21799 0.00375
0.0363518 0.1 -1.21799 0.00374939
0.0363518 0.1 1.21799 0.00375085
1.11928 0.1 -0.48325 0.00368068
1.11928 0.1 0.48325 0.0037015
1.10076 0.1 -0.524714 0.00367342
1.10076 0.1 0.524714 0.00369288
1.20938 0.1 0.161328 0.00375314
1.20938 0.1 -0.161328 0.00373948
1.08012 0.1 0.567953 0.003685
1.08012 0.1 -0.567953 0.00366686
0.623803 0.1 1.05 0.00369103
0.623803 0.1 -1.05 0.00368167
1.0579 0.1 -0.612892 0.00366055
1.0579 0.1 0.612892 0.00367729
1.15704 0.1 -0.402888 0.00369716
1.15704 0.1 0.402888 0.00372039
1.14316 0.1 0.440974 0.00371251
1.14316 0.1 -0.440974 0.00368951
1.19808 0.1 -0.260384 0.00372551
1.19808 0.1 0.260384 0.00374616
1.2267 0.1 3.57064e-18 0.00375922
1.2267 0.1 -0.0636649 0.00375537
1.2267 0.1 0.0636649 0.00376154
1.1744 0.1 -0.364541 0.0037053
1.1744 0.1 0.364541 0.00372879
0.574156 0.1 1.0875 0.00369816
0.574156 0.1 -1.0875 0.00368886
1.20938 0.1 0.225859 0.00375159
1.20938 0.1 -0.225859 0.00373246
1.04168 0.1 -0.656246 0.00365573
1.04168 0.1 0.656246 0.00367202
1.2267 0.1 -0.12733 0.00375
1.2267 0.1 0.12733 0.0037624
0.287374 0.1 1.2 0.00373507
0.287374 0.1 -1.2 0.00372869
1.02149 0.1 -0.702294 0.0036512
1.02149 0.1 0.702294 0.00366701
0.075776 0.1 -1.2375 0.00374837
0.075776 0.1 1.2375 0.00375137
0.871399 0.1 0.88201 0.00366382
0.522865 0.1 1.125 0.00370566
0.522865 0.1 -1.125 0.00369643
1.2267 0.1 -0.190994 0.00374323
1.2267 0.1 0.190994 0.00376184
1.19808 0.1 -0.32548 0.00371725
1.19808 0.1 0.32548 0.00374244
0.990306 0.1 -0.75 0.00364866
0.990306 0.1 0.75 0.00366362
1.24274 0.1 -0.0314313 0.00376433
1.24274 0.1 0.0314313 0.00376771
1.20938 0.1 -0.29039 0.00372445
1.20938 0.1 0.29039 0.00374863
1.24274 0.1 -0.0942942 0.00375938
1.24274 0.1 0.0942942 0.00376952
0.93886 0.1 0.821002 0.00366289
1.11928 0.1 -0.552285 0.00367222
1.11928 0.1 0.552285 0.00369538
1.15704 0.1 -0.470036 0.00368837
1.15704 0.1 0.470036 0.00371448
0.969689 0.1 -0.7875 0.00364841
0.96969 0.1 0.7875 0.00366405
0.93886 0.1 -0.825 0.0036482
0.90582 0.1 0.8625 0.0036618
0.905821 0.1 -0.8625 0.00364841
1.1744 0.1 -0.430821 0.00369653
1.1744 0.1 0.430821 0.00372329
1.10076 0.1 -0.594676 0.00366507
1.10076 0.1 0.594676 0.00368688
1.14316 0.1 -0.508816 0.00368079
1.14316 0.1 0.508816 0.00370636
1.24274 0.1 -0.157157 0.0037529
1.24274 0.1 0.157157 0.0037699
1.2267 0.1 -0.254659 0.00373539
1.2267 0.1 0.254659 0.00375981
0.467897 0.1 1.1625 0.00371339
0.467897 0.1 -1.1625 0.00370453
1.08012 0.1 0.638947 0.00367934
1.08012 0.1 -0.638947 0.00365881
1.25511 0.1 -5.78241e-19 0.00377335
0.835106 0.1 -0.9375 0.00365352
0.835106 0.1 0.9375 0.0036653
0.871687 0.1 -0.903998 0.00365097
1.25511 0.1 0.0622446 0.00377636
1.25511 0.1 -0.0622446 0.00376873
0.219992 0.1 1.2375 0.00374185
0.219992 0.1 -1.2375 0.00373672
0 0.1 -1.25701 0.00375
0 0.1 1.25701 0.00375
0.0363518 0.1 -1.25701 0.00374939
0.0363518 0.1 1.25701 0.00375085
0.797314 0.1 0.975 0.00366891
0.797314 0.1 -0.975 0.00365753
1.19808 0.1 -0.390576 0.00370834
1.19808 0.1 0.390576 0.00373748
1.0579 0.1 -0.684997 0.00365293
1.0579 0.1 0.684997 0.00367215
1.20938 0.1 -0.354921 0.00371574
1.20938 0.1 0.354921 0.00374431
1.25511 0.1 0.124489 0.00377781
1.25511 0.1 -0.124489 0.00376257
1.24274 0.1 -0.220019 0.00374524
1.24274 0.1 0.220019 0.00376882
0.756813 0.1 1.0125 0.0036729
0.756814 0.1 -1.0125 0.00366202
1.2267 0.1 -0.318324 0.00372674
1.2267 0.1 0.318324 0.00375632
0.411108 0.1 1.2 0.00372081
0.411108 0.1 -1.2 0.0037126
1.25511 0.1 -0.186734 0.0037551
1.25511 0.1 0.186734 0.00377776
0.714971 0.1 1.05 0.00367841
0.714971 0.1 -1.05 0.00366767
1.04168 0.1 -0.729162 0.00364847
1.04168 0.1 0.729162 0.00366748
1.24274 0.1 0.282882 0.00376623
1.24274 0.1 -0.282882 0.00373672
0 0.1 1.275 0.00375
0 0.1 -1.275 0.00375
1.1744 0.1 0.497102 0.00371696
1.1744 0.1 -0.497102 0.00368728
1.15704 0.1 -0.537184 0.00367917
1.15704 0.1 0.537184 0.0037079
1.2756 0.1 -0.03061 0.00378235
1.2756 0.1 0.03061 0.00378679
0.67013 0.1 1.0875 0.00368423
0.67013 0.1 -1.0875 0.00367384
1.2756 0.1 -0.09183 0.00377632
1.2756 0.1 0.09183 0.00378955
1.25511 0.1 -0.248978 0.00374669
1.25511 0.1 0.248978 0.00377617
1.20938 0.1 0.419453 0.00373877
1.20938 0.1 -0.419453 0.00370641
1.11928 0.1 -0.621322 0.00366335
1.11928 0.1 0.621322 0.00368897
1.14316 0.1 -0.576659 0.00367163
1.14316 0.1 0.576659 0.00369971
1.19808 0.1 -0.455673 0.00369885
1.19808 0.1 0.455673 0.00373144
1.02149 0.1 0.776219 0.00366318
1.02149 0.1 -0.776219 0.00364447
0.150379 0.1 1.275 0.00374638
0.150379 0.1 -1.275 0.0037425
1.2756 0.1 -0.15305 0.00376886
1.2756 0.1 0.15305 0.00379071
1.2267 0.1 -0.381989 0.0037174
1.2267 0.1 0.381989 0.00375146
1.10076 0.1 -0.664638 0.00365647
1.10076 0.1 0.664638 0.00368071