# kMean  POINT_DATA 91129
# x  y  z  kMean
0 0 0 0.00525435
0 0.00368111 0 0.00375
0 0.00749587 0 0.00375
0 0.0114491 0 0.00375
0 0.0155459 0 0.00375
0 0.0197915 0 0.00375
0 0.0241911 0 0.00375
0 0.0287506 0 0.00375
0 0.0334755 0 0.00375
0 0.038372 0 0.00375
0 0.0434463 0 0.00375
0 0.0487048 0 0.00375
0 0.0541543 0 0.00375
0 0.0598016 0 0.00375
0 0.0656539 0 0.00375
0 0.0717187 0 0.00375
0.075776 0.00184055 0 0.00864198
0.075776 0.00558849 0 0.00313755
0.075776 0.00947248 -3.46945e-18 0.00298389
0.075776 0.0134975 -3.46945e-18 0.00338121
0.075776 0.0176687 3.46945e-18 0.00356082
0 0.0780037 0 0.00375
0.075776 0.0219913 3.46945e-18 0.00363386
0.075776 0.0264709 3.46945e-18 0.0036706
0.075776 0.031113 -3.46945e-18 0.00369192
0.075776 0.0359237 -3.46945e-18 0.00370554
0 0.0845169 0 0.00375
0.075776 0.0409092 0 0.00371486
0.075776 0.0460755 -3.46945e-18 0.00372155
0 0.0912666 0 0.00375
0.075776 0.0514296 -3.46945e-18 0.00372656
0.075776 0.0569779 0 0.00373042
0 0.0982613 0 0.00375
0.075776 0.0627278 0 0.00373348
0.075776 0.0686863 0 0.00373593
0 0.10551 0 0.00375
0.075776 0.0748612 3.46945e-18 0.00373797
0.075776 0.0812603 -3.46945e-18 0.00373973
0 0.113022 0 0.00375
0.075776 0.0878918 3.46945e-18 0.00374125
0 0.120806 0 0.00375
0.075776 0.0947639 3.46945e-18 0.00374257
0.075776 0.101886 -3.46945e-18 0.00374371
0 0.128874 0 0.00375
0.075776 0.109266 3.46945e-18 0.00374469
0 0.137234 0 0.00375
0.075776 0.116914 3.46945e-18 0.00374554
0 0.145897 0 0.00375
0.075776 0.12484 0 0.00374628
0.151552 0 0 0.00527648
0.151552 0.00368111 0 0.0037691
0.151552 0.00749587 0 0.00247622
0.151552 0.0114491 0 0.00294475
0.151552 0.0155459 0 0.00330585
0.151552 0.0197915 0 0.00346381
0.075776 0.133054 0 0.00374693
0.151552 0.0241911 0 0.00354646
0.151552 0.0287506 0 0.00359957
0 0.154876 0 0.00375
0.151552 0.0334755 0 0.00363532
0.151552 0.038372 0 0.0036601
0.151552 0.0434463 0 0.00367788
0.151552 0.0487048 0 0.00369107
0.075776 0.141566 0 0.0037475
0.151552 0.0541543 0 0.00370112
0.151552 0.0598016 0 0.00370896
0 0.16418 0 0.00375
0.151552 0.0656539 0 0.00371522
0.151552 0.0717187 0 0.00372032
0.075776 0.150387 0 0.00374803
0.151552 0.0780037 0 0.00372454
0.151552 0.0845169 0 0.0037281
0 0.173822 0 0.00375
0.075776 0.159528 0 0.00374851
0.151552 0.0912666 0 0.00373113
0.151552 0.0982613 0 0.00373373
0 0.183814 0 0.00375
0.151552 0.10551 0 0.00373597
0.075776 0.169001 3.46945e-18 0.00374898
0.151552 0.113022 0 0.00373791
0.151552 0.120806 0 0.0037396
0 0.194169 0 0.00375
0.075776 0.178818 3.46945e-18 0.00374943
0.151552 0.128874 0 0.00374109
0.075776 0.188992 3.46945e-18 0.00374988
0.151552 0.137234 0 0.00374241
0 0.2049 0 0.00375
0.151552 0.145897 0 0.00374358
0.075776 0.199535 0 0.00375032
0 0.21602 0 0.00375
0.151552 0.154876 0 0.00374464
0.219992 0.00184055 0 0.00216998
0.219992 0.00558849 0 0.00145307
0.219992 0.00947248 -3.46945e-18 0.00242031
0.219992 0.0134975 3.46945e-18 0.00303021
0.219992 0.0176687 0 0.00327659
0.219992 0.0219913 0 0.00340449
0.219993 0.0264709 -3.46945e-18 0.00349315
0.219992 0.031113 -3.46945e-18 0.00355518
0.219992 0.0359238 3.46945e-18 0.0035984
0.151552 0.16418 0 0.0037456
0.075776 0.21046 0 0.00375074
0.219992 0.0409092 3.46945e-18 0.0036293
0.219992 0.0460755 0 0.00365203
0.219993 0.0514296 -3.46945e-18 0.0036692
0.219992 0.0569779 0 0.00368249
0 0.227544 0 0.00375
0.219992 0.0627277 3.46945e-18 0.003693
0.219992 0.0686863 0 0.00370148
0.151552 0.173822 0 0.00374649
0.219992 0.0748612 3.46945e-18 0.00370844
0.075776 0.221782 0 0.00375113
0.219992 0.0812603 3.46945e-18 0.00371423
0.219992 0.0878917 -3.46945e-18 0.00371911
0.151552 0.183814 0 0.00374732
7.47806e-17 0.239487 0 0.00375
0.219992 0.0947639 3.46945e-18 0.00372326
0.219993 0.101886 3.46945e-18 0.00372683
0.075776 0.233516 0 0.00375148
0.219993 0.109266 0 0.00372991
0.151552 0.194169 0 0.00374809
0.219993 0.116914 0 0.00373259
0 0.251863 0 0.00375
0.219993 0.12484 0 0.00373496
0.151552 0.2049 0 0.00374882
0.075776 0.245675 0 0.00375179
0.219992 0.133054 3.46945e-18 0.00373705
0.219992 0.141565 0 0.0037389
0.151552 0.21602 0 0.0037495
0 0.264688 0 0.00375
0.219992 0.150387 3.46945e-18 0.00374055
0.075776 0.258275 3.46945e-18 0.00375204
0.219992 0.159528 -3.46945e-18 0.00374203
0.151552 0.227544 0 0.00375013
0.219992 0.169001 3.46945e-18 0.00374338
0 0.27798 0 0.00375
0.075776 0.271334 3.46945e-18 0.00375224
0.151552 0.239487 3.70071e-18 0.00375071
0.219992 0.178818 3.46945e-18 0.0037446
0.288433 0 0 0.00151363
0.288433 0.00368111 0 0.00135655
0.288433 0.00749587 0 0.00179672
0.288433 0.0114491 0 0.00271224
0.288433 0.0155459 3.70071e-18 0.00314742
0.288433 0.0197915 0 0.00331236
0.288433 0.0241911 3.70071e-18 0.0033973
0.288433 0.0287506 0 0.00346584
0.219992 0.188991 0 0.00374572
0.288433 0.0334755 0 0.00352224
0.288433 0.038372 0 0.0035661
0.288433 0.0434463 0 0.00359992
7.47806e-17 0.291753 0 0.00375
0.288433 0.0487048 0 0.00362617
0.288433 0.0541543 0 0.0036468
0.151552 0.251863 0 0.00375123
0.288433 0.0598016 3.70071e-18 0.00366325
0.075776 0.284866 0 0.00375238
0.288433 0.0656539 3.70071e-18 0.00367656
0.219992 0.199534 0 0.00374676
0.288433 0.0717187 0 0.00368746
0.288433 0.0780037 0 0.00369651
0.288433 0.0845169 0 0.00370409
0.288433 0.0912666 0 0.00371045
0.219992 0.21046 -3.46945e-18 0.00374772
0.288433 0.0982613 0 0.00371586
0.151552 0.264688 3.70071e-18 0.00375171
0 0.306027 0 0.00375
0.288433 0.10551 0 0.00372058
0.075776 0.29889 3.46945e-18 0.00375245
0.288433 0.113022 0 0.00372476
0.219993 0.221782 0 0.00374861
0.288433 0.120806 0 0.00372848
0.288433 0.128874 0 0.0037318
0.151552 0.27798 0 0.00375213
0.288433 0.137234 0 0.00373478
0 0.320819 0 0.00375
0.219992 0.233515 -3.46945e-18 0.00374946
0.075776 0.313423 -3.46945e-18 0.00375246
0.288433 0.145897 0 0.00373747
0.288433 0.154876 0 0.00373987
0.151552 0.291753 0 0.00375249
0.219993 0.245675 0 0.00375024
0.288433 0.16418 0 0.00374203
0 0.336148 0 0.00375
0.288433 0.173822 0 0.00374396
0.075776 0.328484 -3.46945e-18 0.0037524
0.219993 0.258275 -3.46945e-18 0.00375097
0.151552 0.306027 0 0.00375279
0.288433 0.183814 0 0.00374568
0.288433 0.194169 0 0.00374723
0.219992 0.271334 3.46945e-18 0.00375165
0.350249 0.00184056 -3.46945e-18 0.000905549
0.350249 0.00558849 0 0.000964497
0.350249 0.00947248 3.46945e-18 0.0023696
0.350249 0.0134975 0 0.00303076
0.350249 0.0176687 0 0.00325301
0.350249 0.0219913 0 0.00331949
0.350249 0.0264708 3.46945e-18 0.00337963
0.350249 0.031113 0 0.00344397
0 0.352034 0 0.00375
0.350249 0.0359238 0 0.00349943
0.075776 0.344091 0 0.00375233
0.350249 0.0409091 0 0.0035443
0.350249 0.0460756 3.46945e-18 0.00358002
0.288433 0.2049 0 0.00374861
0.350249 0.0514296 0 0.00360847
0.151552 0.320819 0 0.00375304
0.350249 0.0569779 0 0.0036313
0.350249 0.0627277 3.46945e-18 0.00364981
0.350249 0.0686863 3.46945e-18 0.00366498
0.350249 0.0748612 3.46945e-18 0.00367753
0.350249 0.0812603 0 0.00368802
0.219992 0.284867 0 0.00375228
0.288433 0.21602 0 0.00374984
0.350249 0.0878917 0 0.00369682
0.350249 0.094764 0 0.00370419
0.350249 0.101886 0 0.00371052
0.350249 0.109266 0 0.00371619
0.288433 0.227544 0 0.00375096
0.075776 0.360265 3.46945e-18 0.00375232
0 0.368496 0 0.00375
0.151552 0.336148 0 0.00375324
0.350249 0.116914 3.46945e-18 0.00372129
0.219992 0.29889 0 0.00375285
0.370854 0.0241911 1.54074e-33 0.003373
0.350249 0.12484 0 0.00372585
0.350249 0.133054 0 0.00372996
0.288433 0.239487 -9.25154e-19 0.00375197
0.350249 0.141566 3.46945e-18 0.0037337
0.350249 0.150387 3.46945e-18 0.00373706
0.288433 0.251863 0 0.0037529
0.219992 0.313423 0 0.00375336
0.151552 0.352034 0 0.00375344
0.075776 0.377027 0 0.00375236
0.350249 0.159528 0 0.00374007
0 0.385557 0 0.00375
0.350249 0.169001 0 0.00374274
0.288433 0.264688 0 0.00375374
0.350249 0.178818 0 0.00374511
0.219992 0.328484 0 0.00375383
0.350249 0.188992 0 0.00374721
0.151552 0.368496 0 0.00375366
0.288433 0.27798 3.70071e-18 0.00375452
0.075776 0.394397 0 0.00375244
0.350249 0.199535 0 0.00374907
7.47806e-17 0.403236 0 0.00375
0.219992 0.344091 0 0.00375426
0.350249 0.21046 -3.46945e-18 0.00375068
0.288433 0.291753 0 0.00375524
0.412065 9.08189e-19 3.08149e-33 0.00078151
0.412065 0.00368111 -2.31298e-18 0.000860091
0.412065 0.00749587 -2.31298e-18 0.00171892
0.412065 0.0114491 -2.31298e-18 0.0028427
0.412065 0.0155459 -2.31298e-18 0.00326226
0.412065 0.0197915 0 0.00334552
0.412065 0.0241911 -3.08149e-33 0.00336085
0.412065 0.0264709 0 0.00337573
0.412065 0.0287506 -2.31298e-18 0.00339061
0.412065 0.0334755 -2.31298e-18 0.00343736
0.412065 0.038372 -2.31298e-18 0.00348546
0.151552 0.385557 0 0.00375391
0.412065 0.0434463 0 0.00352809
0.350249 0.221782 0 0.0037521
0.412065 0.0487048 0 0.003564
0.412065 0.0541543 -3.08149e-33 0.0035937
0.412065 0.0569779 0 0.00360594
0.412065 0.0598016 -2.31298e-18 0.00361818
0.412065 0.0656539 -2.31298e-18 0.00363841
0.412065 0.0717187 -2.31298e-18 0.0036552
0.075776 0.412396 -3.46945e-18 0.00375252
0.412065 0.0780037 -2.31298e-18 0.00366922
0.288433 0.306027 0 0.00375593
0.412065 0.0845169 -2.31298e-18 0.00368098
0.350249 0.233516 3.46945e-18 0.00375337
0 0.421557 0 0.00375
0.412065 0.0912666 -2.31298e-18 0.00369091
0.219992 0.360265 3.46945e-18 0.00375467
0.412065 0.0982613 0 0.00369951
0.412065 0.10551 0 0.00370721
0.412065 0.113022 -2.31298e-18 0.00371421
0.350249 0.245675 0 0.00375451
0.412065 0.120806 0 0.00372055
0.151552 0.403236 0 0.00375417
0.288433 0.320819 0 0.00375659
0.412065 0.128874 -2.31298e-18 0.00372628
0.412065 0.137234 0 0.00373145
0.350249 0.258275 -3.46945e-18 0.00375553
0.219992 0.377026 0 0.00375509
0.412065 0.145897 -2.31298e-18 0.0037361
0.075776 0.431051 0 0.00375257
0.412065 0.154876 -2.31298e-18 0.00374025
0 0.440544 0 0.00375
0.288433 0.336148 0 0.00375723
0.350249 0.271334 0 0.00375646
0.412065 0.16418 -2.31298e-18 0.00374393
0.412065 0.173822 -2.31298e-18 0.00374718
0.151552 0.421557 0 0.00375443
0.412065 0.183814 -2.31298e-18 0.00375003
0.350249 0.284867 3.46945e-18 0.00375732
0.219992 0.394397 0 0.00375552
0.288433 0.352034 3.70071e-18 0.00375786
0.412065 0.194169 0 0.00375254
0.075776 0.450382 0 0.00375259
0.412065 0.2049 -2.31298e-18 0.00375473
0 0.46022 0 0.00375
0.350249 0.29889 3.46945e-18 0.00375814
0.412065 0.21602 0 0.00375665
0.151552 0.440544 0 0.00375466
0.219993 0.412396 3.46945e-18 0.00375596
0.467897 0.00184056 -3.46945e-18 0.000666125
0.467897 0.00558849 0 0.000914648
0.288433 0.368496 0 0.00375847
0.467897 0.00947248 0 0.00261976
0.467897 0.0134975 0 0.00333084
0.467897 0.0176687 3.46945e-18 0.00341764
0.467897 0.0219913 -3.46945e-18 0.00338367
0.467897 0.0264709 3.46945e-18 0.00335903
0.467897 0.0311131 3.46945e-18 0.00338277
0.467897 0.0359238 -3.46945e-18 0.00342804
0.467897 0.038372 0 0.00345846
0.467897 0.0409092 3.46945e-18 0.00347515
0.350249 0.313423 0 0.00375895
0.467897 0.0460755 0 0.00351766
0.467897 0.0514296 3.46945e-18 0.00355406
0.412065 0.227544 -2.31298e-18 0.00375834
0.467897 0.0569779 0 0.00358461
0.467897 0.0627277 -3.46945e-18 0.00361011
0.467897 0.0686863 3.46945e-18 0.00363137
0.467897 0.0748612 0 0.00364916
0.467897 0.0812603 0 0.00366407
0.467897 0.0878918 3.46945e-18 0.0036766
0.075776 0.470415 3.46945e-18 0.0037526
0.412065 0.239487 -2.31298e-18 0.00375982
0.467897 0.0947639 -3.46945e-18 0.00368737
0.467897 0.101886 3.46945e-18 0.00369705
0.350249 0.328483 0 0.00375978
0.467897 0.109266 0 0.00370594
0 0.48061 0 0.00375
0.288433 0.385557 0 0.00375908
0.467897 0.116914 0 0.00371406
0.412065 0.251863 -2.31298e-18 0.00376112
0.219992 0.431051 0 0.00375638
0.467897 0.12484 0 0.00372143
0.151552 0.46022 0 0.00375488
0.467897 0.133054 3.46945e-18 0.0037281
0.467897 0.141566 3.46945e-18 0.00373409
0.412065 0.264688 -2.31298e-18 0.00376228
0.350249 0.344091 -3.46945e-18 0.0037606
0.467897 0.150387 3.46945e-18 0.00373944
0.467897 0.154876 0 0.00374336
0.467897 0.159528 3.46945e-18 0.00374419
0.288433 0.403236 0 0.00375969
0.075776 0.491175 0 0.00375261
0.412065 0.27798 -2.31298e-18 0.00376332
0.467897 0.169001 0 0.00374838
0.467897 0.178818 3.46945e-18 0.00375204
0.219992 0.450382 0 0.00375679
6.73026e-17 0.501741 3.70071e-18 0.00375
0.350249 0.360265 0 0.00376141
0.151552 0.48061 0 0.00375507
0.467897 0.188991 0 0.00375523
0.412065 0.291753 0 0.00376427
0.467897 0.199535 0 0.00375802
0.288433 0.421557 0 0.00376029
0.467897 0.21046 0 0.00376047
0.412065 0.306027 0 0.00376518
0.350249 0.377027 0 0.00376219
0.467897 0.221782 3.46945e-18 0.00376262
0.075776 0.51269 0 0.00375263
0.219993 0.470415 3.46945e-18 0.00375717
0.467897 0.227544 0 0.00376547
0.412065 0.320819 -2.31298e-18 0.00376607
0.467897 0.233515 0 0.00376449
6.73026e-17 0.523639 3.70071e-18 0.00375
0.523729 0 0 0.000601726
0.523729 0.00368111 0 0.000752886
0.523729 0.00749587 -2.31298e-18 0.00183822
0.523729 0.0114491 0 0.00316892
0.523729 0.0155459 0 0.00357999
0.523729 0.0197915 -2.31298e-18 0.00353796
0.151552 0.501741 0 0.00375525
0.523729 0.0241911 0 0.00343944
0.523729 0.0287506 0 0.00339083
0.523729 0.0334755 0 0.00339771
0.523729 0.038372 -3.08149e-33 0.00343146
0.523729 0.0434463 0 0.00347238
0.523729 0.0487048 0 0.00351209
0.523729 0.0541543 0 0.00354757
0.288433 0.440544 0 0.00376088
0.523729 0.0598016 0 0.00357824
0.350249 0.394397 -3.46945e-18 0.00376297
0.523729 0.0656539 0 0.00360436
0.467897 0.245675 0 0.0037661
0.523729 0.0717187 0 0.00362646
0.523729 0.0780037 0 0.00364512
0.523729 0.0845169 0 0.00366089
0.523729 0.0912666 0 0.00367448
0.412065 0.336148 0 0.00376695
0.523729 0.0982613 0 0.00368665
0.523729 0.10551 -2.31298e-18 0.0036978
0.467897 0.258275 -3.46945e-18 0.0037675
0.523729 0.113022 0 0.00370803
0.523729 0.120806 -3.08149e-33 0.00371736
0.219993 0.491176 0 0.00375752
0.523729 0.12484 0 0.0037216
0.523729 0.128874 -2.31298e-18 0.00372584
0.075776 0.534986 0 0.00375265
0.467897 0.271334 3.46945e-18 0.00376874
0.350249 0.412396 -3.46945e-18 0.00376374
0.523729 0.137234 0 0.00373349
0.412065 0.352034 -2.31298e-18 0.00376782
0.288433 0.46022 0 0.00376145
0.523729 0.145897 0 0.00374036
0.151552 0.523639 0 0.00375543
0.523729 0.154876 -3.08149e-33 0.00374648
0 0.546332 0 0.00375
0.523729 0.159528 0 0.00374919
0.467897 0.284867 -3.46945e-18 0.00376985
0.523729 0.16418 -2.31298e-18 0.0037519
0.523729 0.173822 0 0.00375665
0.412065 0.368496 0 0.00376868
0.523729 0.183814 0 0.0037608
0.467897 0.29889 0 0.00377088
0.350249 0.431051 -3.46945e-18 0.0037645
0.219992 0.51269 0 0.00375785
0.523729 0.194169 0 0.00376441
0.288433 0.48061 0 0.00376198
0.523729 0.2049 0 0.00376754
0.467897 0.313423 3.46945e-18 0.00377185
0.075776 0.558091 0 0.00375269
0.412065 0.385557 0 0.00376954
0.523729 0.21602 -3.08149e-33 0.00377026
0.151552 0.546332 0 0.0037556
0 0.569849 0 0.00375
0.350249 0.450382 3.46945e-18 0.00376524
0.523729 0.227544 -3.08149e-33 0.00377261
0.467897 0.328483 0 0.00377279
0.523729 0.231525 1.54074e-33 0.00377328
0.574156 0.00184056 0 0.000541554
0.574156 0.00558849 0 0.000894143
0.574157 0.00947248 0 0.00291509
0.574156 0.0134975 -3.46945e-18 0.00378461
0.574156 0.0176687 -3.46945e-18 0.0037599
0.574156 0.0219913 0 0.0035726
0.574156 0.0264708 -3.46945e-18 0.00343351
0.574156 0.031113 0 0.00338539
0.574156 0.0359238 -3.46945e-18 0.00339564
0.574157 0.0409092 0 0.00342965
0.523729 0.239487 3.70071e-18 0.00377462
0.574156 0.0460755 -3.46945e-18 0.00347021
0.574156 0.0514295 0 0.00350954
0.412065 0.403236 0 0.00377038
0.574157 0.0569779 0 0.00354494
0.574156 0.0627277 0 0.0035758
0.574156 0.0686863 0 0.00360229
0.219992 0.534986 0 0.00375816
0.288433 0.501741 0 0.00376248
0.574156 0.0748612 3.46945e-18 0.00362484
0.574156 0.0812603 0 0.00364393
0.467897 0.344091 0 0.00377372
0.574156 0.0878917 3.46945e-18 0.0036602
0.523729 0.251863 0 0.00377635
0.574157 0.0947639 0 0.00367472
0.574156 0.101886 0 0.00368818
0.574156 0.109266 0 0.00370052
0.574156 0.116914 0 0.00371184
0.412065 0.416977 -6.16298e-33 0.00377101
0.350249 0.470415 0 0.00376595
0.523729 0.264688 0 0.00377784
0.075776 0.582034 0 0.00375274
0.574156 0.12484 0 0.00372216
0.574156 0.133054 3.46945e-18 0.00373152
0.412065 0.421557 -2.31298e-18 0.00377122
0.151552 0.569849 0 0.00375577
0.467897 0.360265 -3.46945e-18 0.00377464
0.574157 0.141566 -3.46945e-18 0.00373996
0.523729 0.27798 0 0.00377914
0.574156 0.150386 3.46945e-18 0.0037475
0 0.594219 0 0.00375
0.574156 0.159528 -3.46945e-18 0.00375419
0.574156 0.16418 0 0.00375862
0.288433 0.523639 1.2326e-32 0.00376295
0.574157 0.169001 0 0.00376009
0.523729 0.291753 0 0.00378029
0.219993 0.558091 3.46945e-18 0.00375846
0.467897 0.377026 0 0.00377555
0.574156 0.178818 3.46945e-18 0.00376525
0.412065 0.440544 -2.31298e-18 0.00377206
0.350249 0.491175 0 0.00376662
0.574156 0.188992 3.46945e-18 0.00376974
0.523729 0.306027 -3.08149e-33 0.00378134
0.574157 0.199535 0 0.00377363
0.574157 0.21046 0 0.00377698
0.075776 0.606847 0 0.00375279
0.467897 0.394397 0 0.00377647
0.151552 0.594219 0 0.00375595
0.523729 0.320819 0 0.00378232
0.574157 0.221782 -3.46945e-18 0.00377985
0.412065 0.46022 3.08149e-33 0.00377287
0.288433 0.546332 0 0.00376339
0 0.619475 0 0.00375
0.574156 0.233515 3.46945e-18 0.0037823
0.350249 0.51269 3.46945e-18 0.00376725
0.219992 0.582034 3.46945e-18 0.00375875
0.523729 0.336148 0 0.00378326
0.467897 0.412396 0 0.00377739
0.574156 0.245675 0 0.00378439
0.624584 0 0 0.000497818
0.624584 0.00368111 0 0.000695127
0.624584 0.00749587 0 0.0019722
0.624584 0.0114491 0 0.00354351
0.624584 0.0155459 0 0.00401905
0.624584 0.0197915 0 0.00386801
0.624584 0.0241911 -2.31298e-18 0.00362852
0.624584 0.0287506 0 0.00347259
0.624584 0.0334755 0 0.00341185
0.624584 0.038372 0 0.0034121
0.624584 0.0434463 -2.31298e-18 0.00343869
0.624584 0.0487048 0 0.00347464
0.624584 0.0541543 0 0.00351152
0.624584 0.0598016 0 0.00354577
0.624584 0.0656539 0 0.00357623
0.624584 0.0717187 0 0.00360272
0.624584 0.0780037 0 0.00362544
0.574157 0.258276 3.46945e-18 0.00378616
0.624584 0.0845169 0 0.00364497
0.523729 0.352034 0 0.00378417
0.624584 0.0912666 0 0.00366231
0.624584 0.0982613 0 0.00367826
0.412065 0.48061 3.08149e-33 0.00377366
0.624584 0.10551 0 0.00369302
0.624584 0.113022 -2.31298e-18 0.00370658
0.574156 0.271334 0 0.00378768
0.624584 0.120806 0 0.003719
0.467897 0.431051 0 0.0037783
0.075776 0.632561 -3.46945e-18 0.00375285
0.624584 0.128874 0 0.00373033
0.151552 0.619475 0 0.00375612
0.288433 0.569849 0 0.0037638
0.350249 0.534985 0 0.00376783
0.624584 0.137234 -2.31298e-18 0.00374059
0.523729 0.368496 0 0.00378508
0.574156 0.284866 -3.46945e-18 0.00378899
0.624584 0.145897 0 0.00374982
0.467897 0.440544 0 0.00378039
0.624584 0.154876 0 0.00375805
0.219992 0.606847 -3.46945e-18 0.00375903
0 0.645647 0 0.00375
0.624584 0.16418 -3.08149e-33 0.00376535
0.574156 0.29889 -3.46945e-18 0.00379015
0.624584 0.173822 0 0.00377176
0.412065 0.501741 1.54074e-33 0.00377439
0.467897 0.450382 -3.46945e-18 0.00377921
0.523729 0.385557 0 0.00378599
0.624584 0.183814 0 0.00377735
0.624584 0.194169 0 0.00378219
0.574156 0.313423 0 0.00379119
0.624584 0.2049 0 0.00378635
0.350249 0.558091 3.46945e-18 0.00376838
0.288433 0.594219 0 0.0037642
0.624584 0.21602 0 0.00378992
0.523729 0.403236 0 0.00378689
0.574156 0.328483 -3.46945e-18 0.00379215
0.151552 0.645647 0 0.00375629
0.467897 0.470415 3.46945e-18 0.0037801
0.075776 0.659208 0 0.00375292
0.624584 0.227544 0 0.00379294
0.412065 0.523639 0 0.00377508
0.523729 0.41545 3.08149e-33 0.0037875
0.624584 0.239487 3.70071e-18 0.0037955
0.574156 0.344091 0 0.00379308
0.219992 0.632561 0 0.00375931
0.67013 0.00184055 0 0.000456759
0.67013 0.00558849 0 0.000890842
0.67013 0.00947248 0 0.00318056
0.67013 0.0134975 0 0.00427014
0.67013 0.0176687 -3.46945e-18 0.00423138
0.67013 0.0219913 0 0.0038835
0.67013 0.0264708 3.46945e-18 0.00360913
0.67013 0.0311131 0 0.00345462
0.67013 0.0359237 0 0.00340915
0.67013 0.0409092 -3.46945e-18 0.00341403
0.67013 0.0460755 0 0.00344223
0.67013 0.0514296 3.46945e-18 0.00347845
0.523729 0.421557 -2.31298e-18 0.00378781
0.67013 0.056978 0 0.00351507
0 0.67277 0 0.00375
0.67013 0.0627277 0 0.00354905
0.624584 0.251863 0 0.00379765
0.67013 0.0686863 0 0.00357934
0.67013 0.0748612 3.46945e-18 0.00360573
0.67013 0.0812603 0 0.00362835
0.67013 0.0878917 0 0.00364826
0.67013 0.0947639 3.46945e-18 0.00366667
0.574156 0.360265 0 0.00379398
0.67013 0.101886 0 0.00368386
0.523729 0.431051 0 0.00378826
0.624584 0.264688 0 0.00379946
0.467897 0.491175 0 0.00378095
0.67013 0.109266 3.46945e-18 0.0036997
0.350249 0.582034 0 0.00376889
0.67013 0.116914 0 0.00371423
0.67013 0.12484 0 0.00372754
0.67013 0.133054 0 0.00373966
0.288433 0.619475 0 0.00376457
0.624584 0.27798 -3.08149e-33 0.00380099
0.412065 0.546332 1.54074e-33 0.00377572
0.523729 0.440544 -3.08149e-33 0.00378872
0.67013 0.141566 3.46945e-18 0.00375062
0.685312 0.0241911 -7.70372e-34 0.00382669
0.685312 0.0434463 -7.70372e-34 0.00343466
0.67013 0.150387 0 0.00376045
0.574156 0.377026 -3.46945e-18 0.00379487
0.67013 0.159528 0 0.0037692
0.624584 0.291753 0 0.00380229
0.151552 0.67277 0 0.00375646
0.075776 0.686823 0 0.00375298
0.67013 0.169001 0 0.00377691
0.67013 0.178818 0 0.00378366
0.467897 0.51269 0 0.00378174
0.685312 0.113022 -7.70372e-34 0.00370839
0.219992 0.659208 0 0.00375958
0.624584 0.306027 0 0.00380342
0.67013 0.188991 0 0.00378953
0.574156 0.394397 3.46945e-18 0.00379577
0.523729 0.46022 0 0.00378963
0.685312 0.137234 -7.70372e-34 0.00374813
0.67013 0.199535 -3.46945e-18 0.00379458
0.350249 0.606847 0 0.00376937
0 0.700877 0 0.00375
0.624584 0.320819 0 0.00380443
0.67013 0.21046 0 0.00379889
0.412065 0.569849 -2.31298e-18 0.00377631
0.67013 0.221782 -3.46945e-18 0.00380255
0.574157 0.412396 0 0.00379667
0.288433 0.645647 0 0.00376493
0.624584 0.336148 -3.08149e-33 0.00380534
0.67013 0.233515 3.46945e-18 0.00380563
0.467897 0.534986 0 0.00378248
0.523729 0.48061 0 0.00379051
0.624584 0.344091 0 0.00380578
0.67013 0.245675 0 0.00380821
0.715676 4.54095e-19 0 0.000423708
0.715676 0.00368111 0 0.000656235
0.715676 0.00749587 0 0.00208581
0.715676 0.0114491 0 0.00388398
0.715676 0.0155459 0 0.00448888
0.715676 0.0197915 0 0.00429554
0.715676 0.0241911 0 0.00392577
0.715676 0.0287506 0 0.00364464
0.715676 0.0334755 0 0.0034904
0.715676 0.038372 0 0.00343471
0.624584 0.352034 -2.31298e-18 0.00380621
0.715676 0.0434463 0 0.00343265
0.151552 0.700877 0 0.00375663
0.715676 0.0487048 0 0.00345576
0.715676 0.0541543 0 0.00348835
0.574156 0.43105 0 0.00379759
0.715676 0.0598016 0 0.00352275
0.67013 0.258275 0 0.00381035
0.715676 0.0656539 0 0.00355542
0.715676 0.0717187 0 0.00358493
0.075776 0.715441 0 0.00375305
0.715676 0.0780037 0 0.00361085
0.715676 0.0845169 0 0.00363365
0.219992 0.686824 0 0.00375984
0.715676 0.0912666 0 0.00365453
0.715676 0.0982613 0 0.00367414
0.67013 0.271334 -3.46945e-18 0.00381214
0.350249 0.632561 -3.46945e-18 0.00376982
0.412065 0.594219 3.08149e-33 0.00377686
0.715676 0.10551 0 0.00369242
0.715676 0.113022 0 0.0037093
0.624584 0.368496 0 0.00380705
0.523729 0.501741 0 0.00379134
0.715676 0.120806 0 0.0037248
0.715676 0.128874 0 0.00373899
0.67013 0.284867 0 0.00381362
0.467897 0.558091 3.46945e-18 0.00378317
0.715676 0.137234 0 0.0037519
0.574156 0.450382 0 0.0037985
0 0.730005 0 0.00375
0.715676 0.145897 0 0.00376355
0.288433 0.67277 0 0.00376527
0.715676 0.154876 0 0.00377398
0.67013 0.29889 0 0.00381487
0.624584 0.385557 0 0.00380789
0.715676 0.16418 -9.25187e-19 0.00378324
0.715676 0.173822 0 0.00379138
0.715676 0.183814 0 0.00379849
0.67013 0.313423 0 0.00381594
0.523729 0.523639 0 0.00379213
0.715676 0.194169 0 0.00380463
0.574156 0.470415 3.46945e-18 0.00379941
0.624584 0.403236 0 0.00380872
0.743101 0.0241911 -7.70372e-34 0.00405592
0.412065 0.619475 3.08149e-33 0.00377736
0.715676 0.2049 0 0.00380989
0.151552 0.730005 0 0.00375679
0.67013 0.328484 3.46945e-18 0.00381688
0.350249 0.659208 0 0.00377024
0.467897 0.582034 0 0.00378379
0.715676 0.21602 0 0.00381436
0.219992 0.715441 0 0.0037601
0.075776 0.745097 -3.46945e-18 0.00375312
0.715676 0.227544 0 0.00381812
0.67013 0.344091 0 0.00381773
0.624584 0.421557 0 0.00380957
0.743101 0.128874 -7.70372e-34 0.00374295
0.715676 0.239487 3.70071e-18 0.00382126
0.574156 0.491175 0 0.00380029
0.756814 0.00184055 0 0.000392524
0.523729 0.546332 0 0.00379285
0.756813 0.00558849 0 0.000886813
0.756813 0.00947248 0 0.00337946
0.756814 0.0134975 -3.46945e-18 0.00468791
0.756814 0.0155459 0 0.00471318
0.756814 0.0176687 0 0.00473924
0.756814 0.0219913 0 0.00430115
0.756814 0.0264709 0 0.00388905
0.756814 0.031113 -3.46945e-18 0.00361304
0.756813 0.0359238 -3.46945e-18 0.00347817
0.288433 0.700877 0 0.0037656
0.756814 0.0409092 -3.46945e-18 0.00343486
0.756813 0.0460755 3.46945e-18 0.00343895
0.756813 0.0514296 0 0.00346392
0.715676 0.251863 0 0.00382386
0.756813 0.0569779 0 0.0034969
0.756814 0.0627277 -3.46945e-18 0.00353102
0.756814 0.0686863 -3.46945e-18 0.00356325
0 0.76019 0 0.00375
0.756814 0.0748612 0 0.00359228
0.67013 0.360265 3.46945e-18 0.00381854
0.756814 0.0812603 -3.46945e-18 0.00361773
0.756814 0.0878917 -3.46945e-18 0.00364079
0.756814 0.0947639 -3.46945e-18 0.00366274
0.715676 0.264688 0 0.003826
0.756813 0.101886 0 0.00368342
0.624584 0.440544 0 0.00381043
0.756813 0.109266 3.46945e-18 0.00370264
0.756813 0.116914 3.46945e-18 0.00372036
0.412065 0.645647 0 0.00377783
0.467897 0.606847 0 0.00378435
0.756814 0.120806 0 0.00372934
0.756813 0.12484 0 0.00373664
0.715676 0.27798 0 0.00382774
0.756814 0.133054 -3.46945e-18 0.00375152
0.67013 0.377026 -3.46945e-18 0.00381932
0.756814 0.137234 0 0.00375916
0.574156 0.51269 0 0.00380112
0.756813 0.141566 3.46945e-18 0.00376503
0.685312 0.352034 -7.70372e-34 0.00382406
0.743101 0.2049 -7.70372e-34 0.0038189
0.350249 0.686824 0 0.00377064
0.756814 0.150387 0 0.0037772
0.756814 0.154876 0 0.00378356
0.715676 0.291753 0 0.00382918
0.756814 0.159528 -3.46945e-18 0.00378805
0.523729 0.569849 0 0.0037935
0.72743 0.264688 0 0.00383031
0.756814 0.16418 0 0.00379382
0.151552 0.76019 0 0.00375695
0.756813 0.169001 3.46945e-18 0.00379765
0.624584 0.46022 0 0.00381128
0.219993 0.745097 0 0.00376034
0.67013 0.394396 0 0.00382009
0.756813 0.178818 -3.46945e-18 0.00380606
0.715676 0.306027 0 0.00383036
0.075776 0.775831 0 0.00375319
0.756813 0.188991 0 0.00381336
0.756814 0.199535 0 0.00381964
0.715676 0.320819 0 0.00383136
0.574156 0.534985 0 0.00380189
0.288433 0.730005 0 0.0037659
0.756813 0.21046 0 0.00382499
0.467897 0.632561 0 0.00378486
0.67013 0.412396 -3.46945e-18 0.00382087
0.624584 0.48061 -3.08149e-33 0.00381212
0.756814 0.221782 0 0.00382949
0.412065 0.67277 3.08149e-33 0.00377825
0.715676 0.336148 0 0.00383221
0 0.791472 0 0.00375
0.756813 0.233516 3.46945e-18 0.00383325
0.523729 0.594219 0 0.00379409
0.624584 0.487654 1.54074e-33 0.00381239
0.756814 0.245675 3.46945e-18 0.00383636
0.350249 0.715441 3.46945e-18 0.00377101
0.67013 0.43105 0 0.00382167
0.715676 0.352034 -9.25187e-19 0.00383298
0.797951 9.08189e-19 -3.08149e-33 0.000367112
0.797951 0.00368111 2.31298e-18 0.000624077
0.797951 0.00749587 2.31298e-18 0.0021674
0.797951 0.0114491 2.31298e-18 0.00416864
0.797951 0.0141803 7.70372e-34 0.00468119
0.797951 0.0155459 0 0.00493747
0.797951 0.0169611 7.70372e-34 0.00488236
0.797951 0.0197915 2.31298e-18 0.00477215
0.797951 0.0219913 0 0.00454418
0.797951 0.0241911 3.08149e-33 0.0043162
0.797951 0.0264709 0 0.00411166
0.797951 0.0287506 -3.08149e-33 0.00390711
0.797951 0.0334755 2.31298e-18 0.0036414
0.797951 0.038372 2.31298e-18 0.00350832
0.797951 0.0434463 2.31298e-18 0.00346028
0.797951 0.0487048 0 0.00345943
0.756813 0.258275 -3.46945e-18 0.00383889
0.797951 0.0541543 2.31298e-18 0.00348076
0.797951 0.0598016 2.31298e-18 0.00351077
0.797951 0.0656539 2.31298e-18 0.00354282
0.574156 0.55809 0 0.00380258
0.624584 0.501741 0 0.00381293
0.797951 0.0717187 2.31298e-18 0.00357353
0.797951 0.0780037 -3.08149e-33 0.00360152
0.797951 0.0845169 2.31298e-18 0.00362698
0.797951 0.0912666 -3.08149e-33 0.00365094
0.797951 0.0982613 2.31298e-18 0.0036738
0.756813 0.271334 0 0.00384095
0.797951 0.10551 2.31298e-18 0.00369533
0.715676 0.368496 0 0.00383369
0.151552 0.791472 0 0.0037571
0.797951 0.113022 2.31298e-18 0.00371537
0.219992 0.775831 3.46945e-18 0.00376058
0.797951 0.118211 7.70372e-34 0.00372771
0.770526 0.239487 1.54074e-33 0.00384086
0.797951 0.120806 0 0.00373388
0.67013 0.450382 3.46945e-18 0.00382247
0.797951 0.128874 3.08149e-33 0.00375088
0.467897 0.659208 0 0.00378532
0.756813 0.284866 -3.46945e-18 0.00384261
0.743101 0.320819 -7.70372e-34 0.00384156
0.797951 0.137234 0 0.00376641
0.797951 0.141566 0 0.00377345
0.797951 0.145897 -9.25187e-19 0.00378049
0.523729 0.619475 0 0.0037946
0.075776 0.807681 0 0.00375326
0.797951 0.150387 0 0.00378682
0.797951 0.154876 0 0.00379314
0.715676 0.385557 0 0.00383437
0.412065 0.700877 3.08149e-33 0.00377863
0.288433 0.76019 0 0.00376618
0.756813 0.29889 0 0.00384395
0.797951 0.16418 0 0.0038044
0.624584 0.523639 0 0.00381369
0.797951 0.167394 7.70372e-34 0.00380771
0.797951 0.173822 2.31298e-18 0.00381433
0.574156 0.582034 0 0.0038032
0.67013 0.470415 0 0.00382328
0.797951 0.183814 2.31298e-18 0.003823
0.756813 0.313423 -3.46945e-18 0.00384503
0.797951 0.194169 -9.25187e-19 0.0038305
0.715676 0.403236 0 0.00383506
0.151552 0.807681 0 0.00375718
0.797951 0.197746 -7.70372e-34 0.00383264
0.350249 0.745097 0 0.00377135
0.797951 0.2049 3.08149e-33 0.00383692
0 0.823889 0 0.00375
0.756813 0.328483 -3.46945e-18 0.00384591
0.797951 0.21046 0 0.00383963
0.797951 0.21602 -3.08149e-33 0.00384235
0.797951 0.223703 7.70372e-34 0.00384538
0.797951 0.227544 9.25187e-19 0.0038469
0.624584 0.546332 0 0.00381438
0.715676 0.421557 0 0.00383574
0.67013 0.491176 -3.46945e-18 0.00382406
0.797951 0.231525 7.70372e-34 0.00384815
0.467897 0.686824 -3.46945e-18 0.00378573
0.523729 0.645647 0 0.00379506
0.756813 0.344091 -3.46945e-18 0.00384667
0.822721 0.120806 7.70372e-34 0.00373771
0.797951 0.239487 -3.08149e-33 0.00385066
0.822721 0.137234 7.70372e-34 0.00377201
0.835106 0.00184056 0 0.000343012
0.835106 0.00558849 0 0.000875587
0.835106 0.00947248 0 0.0035243
0.835106 0.0134975 0 0.00506905
0.835107 0.0176687 0 0.0052306
0.835106 0.0219913 -3.46945e-18 0.0047916