# nutMean  POINT_DATA 63840
# x  y  z  nutMean
0 0.5 3.39583e-17 0.0140908
0 0.5 -0.00617931 0.0141509
0 0.5 0.00617931 0.0140347
0.0124865 0.5 -0.00617931 0.0151975
0.0124865 0.5 0.00617931 0.0150258
0 0.5 -0.0688207 0.0147372
0 0.5 0.0688207 0.0134637
0.0124865 0.5 -0.0688207 0.0157838
0.0124865 0.5 0.0688207 0.0144548
0 0.5 -0.075 0.0147931
0 0.5 0.075 0.0134072
0 0.5 -0.0811793 0.0148535
0 0.5 0.0811793 0.013354
0.0124865 0.5 -0.0811793 0.0159521
0.0124865 0.5 0.0811793 0.0142908
0.075776 0.5 -0.0375 0.0207697
0.075776 0.5 0.0375 0.0197355
0.075776 0.5 -0.1125 0.0217824
0.075776 0.5 0.1125 0.0187468
0 0.5 -0.143821 0.0154252
0 0.5 0.143821 0.0128237
0.0124865 0.5 -0.143821 0.0165238
0.0124865 0.5 0.143821 0.0137605
0 0.5 -0.15 0.0154782
0 0.5 0.15 0.0127729
0.151149 0.5 -0.00137318 0.0187679
0 0.5 -0.156179 0.0155363
0 0.5 0.156179 0.0127239
0.0124865 0.5 -0.156179 0.0166902
0.0124865 0.5 0.156179 0.0136105
0.151149 0.5 0.075 0.0179685
0.151149 0.5 -0.075 0.0195357
0.075776 0.5 -0.1875 0.0227734
0.075776 0.5 0.1875 0.0178421
0.151149 0.5 0.15 0.017186
0.151149 0.5 -0.15 0.0201568
0 0.5 -0.218821 0.016047
0 0.5 0.218821 0.0122484
0.0124865 0.5 -0.218821 0.0172008
0.0124865 0.5 0.218821 0.0131349
0.219992 0.5 0.0375 0.0170997
0.219993 0.5 -0.0375 0.0177392
0 0.5 -0.225 0.01609
0 0.5 0.225 0.0122043
0 0.5 -0.231179 0.0161388
0 0.5 0.231179 0.0121603
0.0124865 0.5 -0.231179 0.0173448
0.0124865 0.5 0.231179 0.013002
0.219992 0.5 0.1125 0.0164653
0.219993 0.5 -0.1125 0.0180878
0.151149 0.5 -0.225 0.0207468
0.151149 0.5 0.225 0.0164581
0.075776 0.5 -0.2625 0.0236526
0.075776 0.5 0.2625 0.0170404
0.288069 0.5 -0.00137318 0.0143648
0.219992 0.5 0.1875 0.0158402
0.219993 0.5 -0.1875 0.01827
0 0.5 0.293821 0.0117489
0 0.5 -0.293821 0.0164837
0.0124865 0.5 -0.293821 0.0176897
0.0124865 0.5 0.293821 0.0125906
0.288069 0.5 -0.075 0.0146156
0.288069 0.5 0.075 0.0140354
0 0.5 -0.3 0.0165028
0 0.5 0.3 0.0117125
0 0.5 0.306179 0.0116754
0 0.5 -0.306179 0.0165283
0.0124865 0.5 -0.306179 0.0177049
0.0124865 0.5 0.306179 0.0124797
0.288069 0.5 -0.15 0.0148039
0.288069 0.5 0.15 0.0136934
0.151149 0.5 -0.3 0.0211333
0.151149 0.5 0.3 0.0158047
0.219992 0.5 -0.2625 0.0186233
0.219992 0.5 0.2625 0.0152421
0.075776 0.5 0.3375 0.016363
0.075776 0.5 -0.3375 0.023744
0.350249 0.5 -0.0375 0.011471
0.350249 0.5 0.0375 0.0114847
0.288069 0.5 -0.225 0.015004
0.288069 0.5 0.225 0.0133533
0.350249 0.5 0.1125 0.0114381
0.350249 0.5 -0.1125 0.01158
0 0.5 0.368821 0.0113302
0 0.5 -0.368821 0.0167475
0.0124865 0.5 -0.368821 0.0179241
0.0124865 0.5 0.368821 0.0121345
0 0.5 -0.375 0.016765
0 0.5 0.375 0.0112998
0 0.5 -0.381179 0.0167893
0 0.5 0.381179 0.0112693
0.0124865 0.5 -0.381179 0.0179829
0.0124865 0.5 0.381179 0.0120426
0.350249 0.5 -0.1875 0.0117031
0.350249 0.5 0.1875 0.01134
0.219992 0.5 -0.3375 0.0188589
0.219992 0.5 0.3375 0.0146935
0.151149 0.5 -0.375 0.0214024
0.151149 0.5 0.375 0.0152362
0.411736 0.5 -0.00137318 0.00986944
0.288069 0.5 -0.3 0.0152297
0.288069 0.5 0.3 0.0130412
0.411736 0.5 -0.075 0.00989405
0.411736 0.5 0.075 0.00985059
0.075776 0.5 -0.4125 0.0240964
0.075776 0.5 0.4125 0.0157985
0.350249 0.5 -0.2625 0.0118537
0.350249 0.5 0.2625 0.0112667
0.411736 0.5 -0.15 0.00998232
0.411736 0.5 0.15 0.00984115
0 0.5 -0.443821 0.0169078
0 0.5 0.443821 0.010989
0.0124865 0.5 -0.443821 0.0181014
0.0124865 0.5 0.443821 0.0117622
0 0.5 -0.45 0.0169059
0 0.5 0.45 0.0109646
0 0.5 -0.456179 0.0169111
0 0.5 0.456179 0.0109403
0.0124865 0.5 -0.456179 0.0181248
0.0124865 0.5 0.456179 0.0116885
0.219992 0.5 -0.4125 0.0192503
0.219993 0.5 0.4125 0.0142027
0.411736 0.5 -0.225 0.0100974
0.411736 0.5 0.225 0.00983561
0.467897 0.5 0.0375 0.00832999
0.467897 0.5 -0.0375 0.00833634
0.288069 0.5 -0.375 0.0155115
0.288069 0.5 0.375 0.0127609
0.151149 0.5 -0.45 0.0216709
0.151149 0.5 0.45 0.0147558
0.467897 0.5 -0.1125 0.0083819
0.467897 0.5 0.1125 0.00834003
0.350249 0.5 0.3375 0.0112053
0.350249 0.5 -0.3375 0.0120259
0.075776 0.5 -0.4875 0.024254
0.075776 0.5 0.4875 0.0153507
0.467897 0.5 -0.1875 0.00846059
0.467897 0.5 0.1875 0.00842949
0.411736 0.5 -0.3 0.0102416
0.411736 0.5 0.3 0.00983472
0 0.5 -0.518821 0.0168438
0 0.5 0.518821 0.0107238
0.0124865 0.5 0.518821 0.011472
0.0124865 0.5 -0.518821 0.0180575
0.523432 0.5 -0.00137318 0.00738434
0 0.5 -0.525 0.0168251
0 0.5 0.525 0.0107058
0.523432 0.5 -0.075 0.00739737
0.523432 0.5 0.075 0.00738797
0 0.5 -0.531179 0.016811
0 0.5 0.531179 0.0106874
0.0124865 0.5 -0.531179 0.0179979
0.0124865 0.5 0.531179 0.0114165
0.288069 0.5 -0.45 0.0157865
0.288069 0.5 0.45 0.0125171
0.219992 0.5 -0.4875 0.0194209
0.219993 0.5 0.4875 0.0137801
0.467897 0.5 -0.2625 0.0085712
0.467897 0.5 0.2625 0.00847979
0.350249 0.5 -0.4125 0.0123581
0.350249 0.5 0.4125 0.0111547
0.523432 0.5 -0.15 0.00745307
0.523432 0.5 0.15 0.00743507
0.151149 0.5 -0.525 0.021628
0.151149 0.5 0.525 0.014366
0.411736 0.5 -0.375 0.010463
0.411736 0.5 0.375 0.00985017
0.075776 0.5 -0.5625 0.0239072
0.075776 0.5 0.5625 0.0150129
0.523432 0.5 -0.225 0.00754106
0.523432 0.5 0.225 0.00750777
0.574156 0.5 -0.0375 0.0064722
0.574156 0.5 0.0375 0.0064763
0.467897 0.5 0.3375 0.00855272
0.467897 0.5 -0.3375 0.00871655
0.574156 0.5 -0.1125 0.00650492
0.574156 0.5 0.1125 0.00650979
0 0.5 -0.593821 0.0166086
0 0.5 0.593821 0.0105322
0.0124865 0.5 -0.593821 0.0177955
0.0124865 0.5 0.593821 0.0112613
0.288069 0.5 -0.525 0.01589
0.288069 0.5 0.525 0.0123134
0 0.5 -0.6 0.0165834
0 0.5 0.6 0.0105208
0.350249 0.5 -0.4875 0.0125647
0.350249 0.5 0.4875 0.0111165
0.523432 0.5 -0.3 0.00766178
0.523432 0.5 0.3 0.00758764
0.219992 0.5 -0.5625 0.0192598
0.219992 0.5 0.5625 0.0134283
0.574156 0.5 -0.1875 0.00657143
0.574156 0.5 0.1875 0.00656548
0 0.5 -0.606179 0.0165586
0 0.5 0.606179 0.010508
0.0124865 0.5 -0.606179 0.0177139
0.0124865 0.5 0.606179 0.0112243
0.411736 0.5 -0.45 0.0107056
0.411736 0.5 0.45 0.00987992
0.151149 0.5 -0.6 0.0213466
0.151149 0.5 0.6 0.0140664
0.62168 0.5 2.64545e-17 0.00589421
0.467897 0.5 0.4125 0.00864521
0.467897 0.5 -0.4125 0.00895618
0.624316 0.5 0.0729402 0.00587424
0.624316 0.5 -0.075 0.00587173
0.574156 0.5 -0.2625 0.00666833
0.574157 0.5 0.2625 0.00666051
0.075776 0.5 -0.6375 0.0234283
0.075776 0.5 0.6375 0.0147837
0.624316 0.5 -0.15 0.00591971
0.624316 0.5 0.15 0.00591866
0.523432 0.5 -0.375 0.00783517
0.523432 0.5 0.375 0.00768478
0.350249 0.5 -0.5625 0.0127499
0.350249 0.5 0.5625 0.0110912
0.624316 0.5 -0.225 0.00599802
0.624316 0.5 0.225 0.00598971
0.288069 0.5 0.6 0.0121519
0.288069 0.5 -0.6 0.0159183
0.574156 0.5 -0.3375 0.00679915
0.574156 0.5 0.3375 0.00675973
0.411736 0.5 -0.525 0.0109109
0.411736 0.5 0.525 0.00992273
0 0.5 -0.668821 0.0162902
0 0.5 0.668821 0.0104149
0.0124865 0.5 -0.668821 0.0174456
0.0124865 0.5 0.668821 0.0111311
0.67013 0.5 0.0375 0.00527082
0.67013 0.5 -0.0375 0.00527045
0.219993 0.5 -0.6375 0.0191017
0.219993 0.5 0.6375 0.0131503
0 0.5 -0.675 0.0162627
0 0.5 0.675 0.0104096
0.467897 0.5 0.4875 0.00875174
0.467897 0.5 -0.4875 0.0091514
0.67013 0.5 -0.1125 0.00530195
0.67013 0.5 0.1125 0.00530287
0 0.5 -0.681179 0.0162329
0 0.5 0.681179 0.010404
0.0124865 0.5 -0.681179 0.0173564
0.0124865 0.5 0.681179 0.0111144
0.523432 0.5 -0.45 0.00803574
0.523432 0.5 0.45 0.00780107
0.151149 0.5 -0.675 0.0210106
0.151149 0.5 0.675 0.0138589
0.624316 0.5 -0.3 0.00610665
0.624316 0.5 0.3 0.0060826
0.67013 0.5 0.1875 0.00535931
0.67013 0.5 -0.1875 0.00536329
0.574156 0.5 -0.4125 0.00697903
0.574157 0.5 0.4125 0.00688205
0.708171 0.5 1.88651e-17 0.00491789
0.075776 0.5 -0.7125 0.0228891
0.075776 0.5 0.7125 0.0146706
0.715434 0.5 0.0736268 0.00487188
0.715434 0.5 -0.075 0.00486666
0.67013 0.5 0.2625 0.00543682
0.67013 0.5 -0.2625 0.00545211
0.350249 0.5 -0.6375 0.0129733
0.350249 0.5 0.6375 0.0110812
0.411736 0.5 -0.6 0.0111402
0.411736 0.5 0.6 0.00997841
0.624316 0.5 -0.375 0.00624953
0.624316 0.5 0.375 0.00619292
0.715434 0.5 -0.15 0.00491239
0.715434 0.5 0.15 0.00490327
0.467897 0.5 -0.5625 0.00938428
0.467897 0.5 0.5625 0.00887118
0.288069 0.5 -0.675 0.0159551
0.288069 0.5 0.675 0.0120347
0.523432 0.5 -0.525 0.00824708
0.523432 0.5 0.525 0.00793328
0 0.5 -0.743821 0.0159366
0 0.5 0.743821 0.0103652
0.0124865 0.5 -0.743821 0.0170602
0.0124865 0.5 0.743821 0.0110756
0.219992 0.5 0.7125 0.0129452
0.219992 0.5 -0.7125 0.01891
0.715434 0.5 -0.225 0.00498502
0.715434 0.5 0.225 0.00496675
0 0.5 -0.75 0.0159087
0 0.5 0.75 0.0103618
0.67013 0.5 0.3375 0.00553702
0.67013 0.5 -0.3375 0.00557059
0.574156 0.5 -0.4875 0.00716846
0.574156 0.5 0.4875 0.00702405
0 0.5 -0.756179 0.0158787
0 0.5 0.756179 0.0103602
0.0124865 0.5 -0.756179 0.0169731
0.0124865 0.5 0.756179 0.0110651
0.756813 0.5 -0.0375 0.00445059
0.756813 0.5 0.0375 0.00444614
0.151149 0.5 -0.75 0.0206499
0.151149 0.5 0.75 0.0137326
0.756813 0.5 -0.1125 0.00448247
0.756813 0.5 0.1125 0.00447023
0.624316 0.5 -0.45 0.00642373
0.624316 0.5 0.45 0.00632418
0.715434 0.5 -0.3 0.00508359
0.715434 0.5 0.3 0.00505185
0.756813 0.5 0.1875 0.00452033
0.756813 0.5 -0.1875 0.00454074
0.67013 0.5 -0.4125 0.00571421
0.67013 0.5 0.4125 0.00565662
0.411736 0.5 -0.675 0.0114049
0.411736 0.5 0.675 0.0100476
0.467897 0.5 0.6375 0.00900114
0.467897 0.5 -0.6375 0.00965726
0.075776 0.5 -0.7875 0.0223488
0.075776 0.5 0.7875 0.0146251
0.350249 0.5 -0.7125 0.0132203
0.350249 0.5 0.7125 0.0110898
0.523432 0.5 -0.6 0.00849691
0.523432 0.5 0.6 0.00807919
0.797732 0.5 2.68882e-17 0.00415046
0.756813 0.5 -0.2625 0.00462304
0.756814 0.5 0.2625 0.00459051
0.797732 0.5 0.0736268 0.00416135
0.797732 0.5 -0.075 0.00416873
0.288069 0.5 -0.75 0.0159948
0.288069 0.5 0.75 0.0119623
0.574156 0.5 -0.5625 0.0073966
0.574157 0.5 0.5625 0.00718284
0.715434 0.5 -0.375 0.00520511
0.715434 0.5 0.375 0.00515589
0.797732 0.5 -0.15 0.00421273
0.797732 0.5 0.15 0.00419214
0.624316 0.5 -0.525 0.00662781
0.624316 0.5 0.525 0.00647505
0.219992 0.5 -0.7875 0.0187142
0.219992 0.5 0.7875 0.0128101
0 0.5 -0.818821 0.0155819
0 0.5 0.818821 0.0103544
0.0124865 0.5 0.818821 0.0110593
0.0124865 0.5 -0.818821 0.0166763
0 0.5 -0.825 0.0155545
0 0.5 0.825 0.0103531
0.756813 0.5 0.3375 0.00468337
0.756814 0.5 -0.3375 0.00472819
0.67013 0.5 -0.4875 0.00589917
0.67013 0.5 0.4875 0.00579785
0.797732 0.5 -0.225 0.0042809
0.797732 0.5 0.225 0.00424853
0 0.5 -0.831179 0.0155264
0 0.5 0.831179 0.010353
0.0124865 0.5 -0.831179 0.0165946
0.0124865 0.5 0.831179 0.0110508
0.835106 0.5 0.0375 0.00386186
0.835106 0.5 -0.0375 0.00386815
0.151149 0.5 -0.825 0.0202983
0.151149 0.5 0.825 0.0136529
0.835106 0.5 0.1125 0.00388066
0.835106 0.5 -0.1125 0.00389861
0.715434 0.5 -0.45 0.00536151
0.715434 0.5 0.45 0.00527982
0.797732 0.5 -0.3 0.00437036
0.797732 0.5 0.3 0.00432535
0.467897 0.5 0.7125 0.009141
0.467897 0.5 -0.7125 0.00996924
0.523432 0.5 -0.675 0.0087858
0.523432 0.5 0.675 0.008237
0.411736 0.5 -0.75 0.0117003
0.411736 0.5 0.75 0.0101315
0.835106 0.5 -0.1875 0.00395407
0.835106 0.5 0.1875 0.00392273
0.574156 0.5 -0.6375 0.00766229
0.574157 0.5 0.6375 0.00735595
0.350249 0.5 -0.7875 0.0134905
0.350249 0.5 0.7875 0.0111195
0.756813 0.5 -0.4125 0.00484791
0.756814 0.5 0.4125 0.00478742
0.075776 0.5 -0.8625 0.0218352
0.075776 0.5 0.8625 0.0145959
0.624316 0.5 0.6 0.00664302
0.624316 0.5 -0.6 0.00686719
0.872064 0.5 5.91974e-17 0.00363182
0.870122 0.5 0.075 0.00365137
0.288069 0.5 -0.825 0.0160489
0.288069 0.5 0.825 0.0119237
0.67013 0.5 -0.5625 0.00611342
0.67013 0.5 0.5625 0.00595927
0.872064 0.5 -0.075 0.00365056
0.835106 0.5 -0.2625 0.0040309
0.835106 0.5 0.2625 0.00398626
0.797732 0.5 -0.375 0.0044781
0.797732 0.5 0.375 0.00442084
0.872064 0.5 0.14794 0.00366381
0.872064 0.5 -0.15 0.00369336
0.715434 0.5 -0.525 0.00555529
0.715434 0.5 0.525 0.00542621
0.219992 0.5 0.8625 0.0127055
0.219993 0.5 -0.8625 0.0185343
0 0.5 -0.893821 0.0152538
0 0.5 0.893821 0.0103938
0.0124865 0.5 -0.893821 0.016322
0.0124865 0.5 0.893821 0.0110916
0 0.5 -0.9 0.0152292
0 0.5 0.9 0.0104023
0.756813 0.5 -0.4875 0.00502594
0.756813 0.5 0.4875 0.00491887
0.872064 0.5 -0.225 0.00375859
0.872064 0.5 0.225 0.00371251
0.835106 0.5 -0.3375 0.00412479
0.835106 0.5 0.3375 0.00406737
0 0.5 0.906179 0.0104111
0 0.5 -0.906179 0.0152038
0.0124865 0.5 -0.906179 0.0162498
0.0124865 0.5 0.906179 0.0111132
0.90582 0.5 -0.0375 0.0034115
0.90582 0.5 0.0375 0.00340324
0.151149 0.5 -0.9 0.0199832
0.151149 0.5 0.9 0.0136359
0.90582 0.5 -0.1125 0.00344143
0.905821 0.5 0.1125 0.0034178
0.523432 0.5 -0.75 0.00911289
0.523432 0.5 0.75 0.00840577
0.574156 0.5 -0.7125 0.00796767
0.574156 0.5 0.7125 0.00754175
0.797732 0.5 -0.45 0.00461972
0.797732 0.5 0.45 0.00453298
0.467897 0.5 0.7875 0.00929081
0.467897 0.5 -0.7875 0.0103173
0.624316 0.5 -0.675 0.00714419
0.624316 0.5 0.675 0.00682553
0.411736 0.5 -0.825 0.0120245
0.411736 0.5 0.825 0.0102297
0.872064 0.5 0.3 0.00378064
0.872064 0.5 -0.3 0.00383943
0.67013 0.5 -0.6375 0.00636367
0.67013 0.5 0.6375 0.00613761
0.90582 0.5 0.1875 0.00345191
0.905821 0.5 -0.1875 0.00349678
0.350249 0.5 -0.8625 0.013782
0.350249 0.5 0.8625 0.0111642
0.835106 0.5 -0.4125 0.00423737
0.835106 0.5 0.4125 0.00417155
0.715434 0.5 -0.6 0.00577905
0.715434 0.5 0.6 0.00559188
0.939201 0.5 2.75387e-17 0.00329709
0.075776 0.5 0.9375 0.0147084
0.075776 0.5 -0.9375 0.0213971
0.939111 0.5 0.075 0.0033026
0.939201 0.5 -0.075 0.00331458
0.756813 0.5 0.5625 0.00507078
0.756814 0.5 -0.5625 0.00522436
0.90582 0.5 0.2625 0.00350732
0.905821 0.5 -0.2625 0.0035701
0.288069 0.5 -0.9 0.0161247
0.288069 0.5 0.9 0.0119179
0.872064 0.5 -0.375 0.00393704
0.872064 0.5 0.375 0.00386823
0.939201 0.5 0.148627 0.00332728
0.939201 0.5 -0.15 0.00335569
0.797732 0.5 -0.525 0.00479846
0.797732 0.5 0.525 0.00466598
0.219992 0.5 0.9375 0.0126657
0.219992 0.5 -0.9375 0.0183842
0.939201 0.5 -0.225 0.00341912
0.939201 0.5 0.225 0.00337029
0.905821 0.5 -0.3375 0.00364977
0.90582 0.5 0.3375 0.00358011
0.835106 0.5 -0.4875 0.00439415
0.835106 0.5 0.4875 0.00428089
0 0.5 0.968821 0.0105128
0 0.5 -0.968821 0.014972
0.0124865 0.5 -0.968821 0.0160179
0.0124865 0.5 0.968821 0.0112149
0.969689 0.5 -0.0375 0.00319323
0.969689 0.5 0.0375 0.00318759
0.574156 0.5 -0.7875 0.00831098
0.574156 0.5 0.7875 0.0077387
0 0.5 -0.975 0.0149526
0 0.5 0.975 0.0105243
0.624316 0.5 -0.75 0.00745916
0.624316 0.5 0.75 0.0070209
0.969689 0.5 -0.1125 0.00321943
0.96969 0.5 0.1125 0.00320363
0.523432 0.5 -0.825 0.00947634
0.523432 0.5 0.825 0.00858465
0.67013 0.5 0.7125 0.0063301
0.67013 0.5 -0.7125 0.00665125
0 0.5 -0.981179 0.0149306
0 0.5 0.981179 0.0105362
0.467897 0.5 0.8625 0.00945224
0.467897 0.5 -0.8625 0.0106995
0.0124865 0.5 -0.981179 0.0159596
0.0124865 0.5 0.981179 0.0112435
0.872064 0.5 -0.45 0.00406482
0.872064 0.5 0.45 0.0039709
0.715434 0.5 -0.675 0.00603836
0.715434 0.5 0.675 0.00577449
0.939201 0.5 -0.3 0.00349333
0.939201 0.5 0.3 0.00343336
0.151149 0.5 0.975 0.0137138
0.151149 0.5 -0.975 0.0197236
0.969689 0.5 -0.1875 0.00327247
0.969689 0.5 0.1875 0.00323797
0.756813 0.5 -0.6375 0.00545725
0.756813 0.5 0.6375 0.00524218
0.411736 0.5 -0.9 0.0123756
0.411736 0.5 0.9 0.0103452
0.90582 0.5 -0.4125 0.00375448
0.90582 0.5 0.4125 0.00367277
0.995005 0.5 0.0749309 0.00305251
0.797732 0.5 -0.6 0.00500667
0.797732 0.5 0.6 0.00482135
1.00005 0.5 -8.47123e-18 0.00301449
0.350249 0.5 -0.9375 0.0140936
0.350249 0.5 0.9375 0.011232
1.00005 0.5 -0.0749309 0.00302862
0.969689 0.5 -0.2625 0.00334453
0.969689 0.5 0.2625 0.0032911
0.835106 0.5 -0.5625 0.00457666
0.835106 0.5 0.5625 0.00442094
1.00005 0.5 -0.149862 0.00306585
0.939201 0.5 -0.375 0.00358227
0.939201 0.5 0.375 0.00351374
1.00029 0.5 0.148988 0.00304904
0.075776 0.5 -1.0125 0.0210409
0.075776 0.5 1.0125 0.0148955
0.288069 0.5 0.975 0.0119351
0.288069 0.5 -0.975 0.0162264
0.872064 0.5 -0.525 0.00422712
0.872064 0.5 0.525 0.00408941
1.00005 0.5 0.224793 0.00308766
1.00005 0.5 -0.224793 0.0031252
0.969689 0.5 0.3375 0.00336211
0.96969 0.5 -0.3375 0.00341647
1.0271 0.5 -0.0368226 0.00283241
1.0271 0.5 0.0368226 0.00282924
0.90582 0.5 0.4875 0.0037776
0.905821 0.5 -0.4875 0.00389203
1.0271 0.5 -0.110468 0.00285443
1.0271 0.5 0.110468 0.00283039
0.67013 0.5 0.7875 0.00653592
0.67013 0.5 -0.7875 0.00697583
0.624316 0.5 0.825 0.00722731
0.624316 0.5 -0.825 0.00781143
0.219993 0.5 -1.0125 0.0182714
0.219993 0.5 1.0125 0.0127268
0.574156 0.5 -0.8625 0.00869152
0.574156 0.5 0.8625 0.00794346
0.715434 0.5 -0.75 0.00633435
0.715434 0.5 0.75 0.00597166
0.756813 0.5 0.7125 0.00543066
0.756814 0.5 -0.7125 0.00572468
0.523432 0.5 -0.9 0.00987458
0.523432 0.5 0.9 0.00877704
0.939201 0.5 -0.45 0.00370254
0.939201 0.5 0.45 0.00361011
1.04168 0.5 0 0.0027484
1.0271 0.5 -0.184113 0.00289998
1.0271 0.5 0.184113 0.00287477
0 0.5 -1.04382 0.0147445
0 0.5 1.04382 0.0106816
0.0124865 0.5 -1.04382 0.0157735
0.0124865 0.5 1.04382 0.011389
1.00005 0.5 -0.299723 0.00319645
1.00005 0.5 0.299723 0.00314823
1.04168 0.5 -0.0729162 0.00276057
1.04168 0.5 0.0729162 0.0027524
0.797732 0.5 -0.675 0.0052498
0.797732 0.5 0.675 0.00499343
0.467897 0.5 0.9375 0.00963295
0.467897 0.5 -0.9375 0.0111131
0 0.5 -1.05 0.0147316
0 0.5 1.05 0.0106976
0.835106 0.5 -0.6375 0.00479633
0.835106 0.5 0.6375 0.00457957
1.04168 0.5 -0.145832 0.00279242
1.04168 0.5 0.145832 0.00277177
0.969689 0.5 -0.4125 0.00351611
0.96969 0.5 0.4125 0.00344735
0 0.5 -1.05618 0.0147138
0 0.5 1.05618 0.0107137
0.0124865 0.5 -1.05618 0.0157322
0.0124865 0.5 1.05618 0.0114301
1.05695 0.5 -0.0360764 0.0026677
1.05695 0.5 0.0360764 0.00266327
0.411736 0.5 -0.975 0.0127513
0.411736 0.5 0.975 0.0104348
0.872064 0.5 -0.6 0.00442291
0.872064 0.5 0.6 0.00422981
1.0271 0.5 -0.257759 0.00296256
1.0271 0.5 0.257759 0.00292237
0.151149 0.5 -1.05 0.0195279
0.151149 0.5 1.05 0.0138863
1.05695 0.5 0.108229 0.00265507
1.05695 0.5 -0.108229 0.00268763
1.04168 0.5 -0.218749 0.00284272
1.04168 0.5 0.218749 0.00280624
0.90582 0.5 -0.5625 0.00406495
0.905821 0.5 0.5625 0.00389787
1.00005 0.5 -0.374654 0.00328351
1.00005 0.5 0.374654 0.00322524
0.350249 0.5 1.0125 0.0112107
0.350249 0.5 -1.0125 0.0144223
1.05695 0.5 -0.180382 0.00272753
1.05695 0.5 0.180382 0.00269518
1.07319 0.5 0.0709442 0.00259822
0.939201 0.5 -0.525 0.00386718
0.939201 0.5 0.525 0.00372047
1.0271 0.5 -0.331404 0.0030372
1.0271 0.5 0.331404 0.00298724
1.08112 0.5 3.23815e-17 0.00256752
1.04168 0.5 -0.291665 0.00290665
1.04168 0.5 0.291665 0.00285625
1.08112 0.5 -0.0709442 0.00257829
0.969689 0.5 -0.4875 0.00365537
0.96969 0.5 0.4875 0.00355028
1.05695 0.5 0.252535 0.00273156
1.05695 0.5 -0.252535 0.00278003
0.288069 0.5 -1.05 0.0163565
0.288069 0.5 1.05 0.0120246
0.075776 0.5 -1.0875 0.0207791
0.075776 0.5 1.0875 0.0151481
1.08112 0.5 -0.141888 0.002607
1.08145 0.5 0.140165 0.00258941
0.715434 0.5 0.825 0.00618064
0.715434 0.5 -0.825 0.00666809
0.756813 0.5 0.7875 0.00563272
0.756814 0.5 -0.7875 0.00602999
0.67013 0.5 -0.8625 0.00733749
0.67013 0.5 0.8625 0.00675348
0.797732 0.5 -0.75 0.00552784
0.797732 0.5 0.75 0.00518027
0.624316 0.5 -0.9 0.00820056
0.624316 0.5 0.9 0.00744574
1.00005 0.5 -0.449585 0.00340478
1.00005 0.5 0.449585 0.00331918
0.835106 0.5 -0.7125 0.00504944
0.835106 0.5 0.7125 0.00475003
0.574156 0.5 -0.9375 0.00910815
0.574157 0.5 0.9375 0.00816371
1.10076 0.5 -0.0349809 0.00249782
1.10076 0.5 0.0349809 0.00249596
1.08112 0.5 -0.212832 0.00265121
1.08112 0.5 0.212832 0.00261455
0.872064 0.5 -0.675 0.00465272
0.872064 0.5 0.675 0.0043902
1.04168 0.5 -0.364581 0.0029867
1.04168 0.5 0.364581 0.00292172
1.0271 0.5 0.405049 0.00306772
1.0271 0.5 -0.405049 0.00313487
1.05695 0.5 -0.324688 0.00284641
1.05695 0.5 0.324688 0.00278281
1.10076 0.5 -0.104943 0.00251489
1.10076 0.5 0.104943 0.00250588
0.523432 0.5 0.975 0.00895958
0.523432 0.5 -0.975 0.0103057
0.90582 0.5 0.6375 0.00404118
0.905821 0.5 -0.6375 0.00427339
0.219992 0.5 1.0875 0.0129219
0.219992 0.5 -1.0875 0.0182037
1.11376 0.5 3.81639e-17 0.00245169
0.939201 0.5 0.6 0.00386306
0.939201 0.5 -0.6 0.00406786
1.10076 0.5 -0.174905 0.00255414
1.10076 0.5 0.174905 0.00252897
0.467897 0.5 -1.0125 0.0115554
0.467897 0.5 1.0125 0.00975584
1.11376 0.5 -0.0693118 0.00246049
1.11376 0.5 0.0693118 0.00245609
1.08112 0.5 0.283777 0.00265651
1.08112 0.5 -0.283777 0.00270565
0 0.5 -1.11882 0.0145808
0 0.5 1.11882 0.010907
0.0124865 0.5 -1.11882 0.0155993
0.0124865 0.5 1.11882 0.0116234
0.969689 0.5 -0.5625 0.00386356
0.969689 0.5 0.5625 0.0036638
1.11376 0.5 0.138624 0.00247454
1.11376 0.5 -0.138624 0.00248814
0 0.5 -1.125 0.0145744
0 0.5 1.125 0.0109284
1.10076 0.5 0.244866 0.00256453
1.10076 0.5 -0.244866 0.0026021
0.411736 0.5 -1.05 0.0131492
0.411736 0.5 1.05 0.010523
1.05695 0.5 -0.396841 0.00293128
1.05695 0.5 0.396841 0.00284823
1.00005 0.5 -0.524516 0.00357109
1.00005 0.5 0.524516 0.00342916
1.04168 0.5 -0.437497 0.00309648
1.04168 0.5 0.437497 0.0030035
0 0.5 -1.13118 0.0145626
0 0.5 1.13118 0.0109502
0.0124865 0.5 -1.13118 0.0155782
0.0124865 0.5 1.13118 0.0116808
1.11376 0.5 -0.207935 0.00253128
1.11376 0.5 0.207935 0.00250175
1.0271 0.5 -0.478694 0.00327234
1.0271 0.5 0.478694 0.00316695
0.151149 0.5 -1.125 0.0194049
0.151149 0.5 1.125 0.0141401
1.08112 0.5 -0.354722 0.0027754
1.08112 0.5 0.354722 0.00271229
1.13882 0.5 -0.0340295 0.00236225
1.13882 0.5 0.0340295 0.00236173
0.350249 0.5 -1.0875 0.014767
0.350249 0.5 1.0875 0.0113384
1.13882 0.5 -0.102088 0.00237748
1.13882 0.5 0.102088 0.0023677
1.10076 0.5 -0.314829 0.00265663
1.10076 0.5 0.314829 0.00261377
0.756813 0.5 -0.8625 0.00637428
0.756814 0.5 0.8625 0.00584348
0.797732 0.5 -0.825 0.00584314
0.797732 0.5 0.825 0.00538164
1.11376 0.5 -0.277247 0.00258086
1.11376 0.5 0.277247 0.00254358
0.835106 0.5 0.7875 0.00493714
0.835106 0.5 -0.7875 0.00533642
0.715434 0.5 -0.9 0.00703904
0.715434 0.5 0.9 0.00640057
0.872064 0.5 -0.75 0.00491682
0.872064 0.5 0.75 0.00456946
1.13882 0.5 0.170147 0.00239487
1.13882 0.5 -0.170147 0.0024151
0.67013 0.5 -0.9375 0.00773616
0.67013 0.5 0.9375 0.00698403
0.905821 0.5 -0.7125 0.00451192
0.905821 0.5 0.7125 0.00421062
1.05695 0.5 0.468994 0.00293057
1.05695 0.5 -0.468994 0.00305163
0.939201 0.5 -0.675 0.00428883
0.939201 0.5 0.675 0.00401228
0.624316 0.5 0.975 0.00766469
0.624316 0.5 -0.975 0.00862573
1.04168 0.5 -0.510414 0.00323761
1.04168 0.5 0.510414 0.0031027
0.969689 0.5 -0.6375 0.00407598
0.96969 0.5 0.6375 0.00385631
0.288069 0.5 -1.125 0.0165163
0.288069 0.5 1.125 0.0122064
1.16179 0.5 5.78241e-19 0.00227508
1.08112 0.5 0.425666 0.0027827
1.08112 0.5 -0.425666 0.00287196
1.13882 0.5 -0.238206 0.00246068
1.13882 0.5 0.238206 0.00242917
1.16179 0.5 0.0669104 0.00226765
1.16179 0.5 -0.0669104 0.00228162
0.574156 0.5 -1.0125 0.00955966
0.574156 0.5 1.0125 0.00836651
0.075776 0.5 -1.1625 0.0206283
0.075776 0.5 1.1625 0.0155001
1.00005 0.5 -0.599447 0.00375748
1.00005 0.5 0.599447 0.00357347
1.10076 0.5 0.384791 0.00267628
1.10076 0.5 -0.384791 0.00273356
1.0271 0.5 -0.55234 0.00343684
1.0271 0.5 0.55234 0.00328298
1.11376 0.5 -0.346559 0.00264406
1.11376 0.5 0.346559 0.0025986
1.16179 0.5 -0.133821 0.00230645
1.16179 0.5 0.133821 0.00229412
0.523432 0.5 -1.05 0.0107677
0.523432 0.5 1.05 0.00911707
1.17463 0.5 -0.0331343 0.00222852
1.17463 0.5 0.0331343 0.00222891
1.17463 0.5 -0.0994029 0.00224078
1.17463 0.5 0.0994029 0.00223857
1.16179 0.5 -0.200731 0.00234667
1.16179 0.5 0.200731 0.00232239
1.13882 0.5 -0.306265 0.00250874
1.13882 0.5 0.306265 0.00247596
0.219992 0.5 -1.1625 0.018181
0.219992 0.5 1.1625 0.0131439
0.467897 0.5 -1.0875 0.0120242
0.467897 0.5 1.0875 0.00987536
1.17463 0.5 0.165672 0.00225922
1.17463 0.5 -0.165672 0.00227607
1.05695 0.5 -0.541147 0.00318988
1.05695 0.5 0.541147 0.00303009
1.18772 0.5 -5.78241e-19 0.00218334
1.11376 0.5 -0.41587 0.00273424
1.11376 0.5 0.41587 0.00266728
1.18772 0.5 -0.065614 0.00218871
1.18772 0.5 0.065614 0.002189
1.08112 0.5 -0.49661 0.00299444
1.08112 0.5 0.49661 0.00286933
1.10076 0.5 -0.454752 0.00284326
1.10076 0.5 0.454752 0.00275358
1.18534 0.5 0.118202 0.00220306
1.16179 0.5 -0.267642 0.00238999
1.16179 0.5 0.267642 0.00236018
0 0.5 -1.19382 0.0144908
0 0.5 1.19382 0.0112
0.0124865 0.5 1.19382 0.0119305
0.0124865 0.5 -1.19382 0.0155065
1.04168 0.5 -0.58333 0.0033838
1.04168 0.5 0.58333 0.00322251
1.18772 0.5 -0.131228 0.00221132
1.17463 0.5 -0.23194 0.00231907
1.17463 0.5 0.23194 0.00229005
0.411736 0.5 -1.125 0.0135676
0.411736 0.5 1.125 0.0106842
1.13882 0.5 -0.374324 0.00257844
1.13882 0.5 0.374324 0.00253542
0 0.5 -1.2 0.0144875
0 0.5 1.2 0.0112269
0.905821 0.5 0.7875 0.0044006
0.905821 0.5 -0.7875 0.00479011
0.872064 0.5 -0.825 0.00521626
0.872064 0.5 0.825 0.00475968
0.835106 0.5 0.8625 0.0051431
0.835106 0.5 -0.8625 0.00566182
0.939201 0.5 -0.75 0.0045275
0.939201 0.5 0.75 0.0041702
0.797732 0.5 -0.9 0.00619787
0.797732 0.5 0.9 0.00559643
1.0271 0.5 0.625985 0.00342604
1.0271 0.5 -0.625985 0.00359635
0.969689 0.5 0.7125 0.00394844
0.96969 0.5 -0.7125 0.00430064
1.18772 0.5 -0.196842 0.00224918
1.18772 0.5 0.196842 0.0022279
0.756814 0.5 -0.9375 0.00675435
0.756814 0.5 0.9375 0.00606471
0 0.5 1.20618 0.0112542
0 0.5 -1.20618 0.0144867
1.00005 0.5 -0.674378 0.00396419
1.00005 0.5 0.674378 0.00370896
0.0124865 0.5 1.20618 0.012004
0.0124865 0.5 -1.20618 0.0155087
1.16179 0.5 -0.334552 0.00244316
1.16179 0.5 0.334552 0.00240982
0.715434 0.5 0.975 0.00662837
0.715434 0.5 -0.975 0.0074472
0.151149 0.5 -1.2 0.0193618
0.151149 0.5 1.2 0.0144622
1.20942 0.5 0.0322645 0.00210507
1.20942 0.5 -0.0322645 0.00210533
1.17463 0.5 -0.298209 0.00235959
1.17463 0.5 0.298209 0.00233195
1.20942 0.5 -0.0967935 0.00211527
1.20942 0.5 0.0967935 0.00211536
0.350249 0.5 -1.1625 0.0151262
0.350249 0.5 1.1625 0.0115241
0.67013 0.5 1.0125 0.00720541
0.67013 0.5 -1.0125 0.00817095
1.11376 0.5 0.485183 0.00275095
1.11376 0.5 -0.485183 0.00284951
1.18772 0.5 0.262456 0.0022629
1.18772 0.5 -0.262456 0.00228924
1.10076 0.5 -0.524714 0.00297158
1.10076 0.5 0.524714 0.0028471
1.20942 0.5 -0.161322 0.00214667
1.20942 0.5 0.161322 0.00213419
1.08112 0.5 -0.567554 0.00311785
1.08112 0.5 0.567554 0.00297274
0.624316 0.5 -1.05 0.00908688
0.624316 0.5 1.05 0.00787461
1.13882 0.5 -0.442383 0.00267676
1.13882 0.5 0.442383 0.0026082
1.05695 0.5 0.6133 0.00314976
1.05695 0.5 -0.6133 0.00331671
1.16179 0.5 -0.401463 0.00252027
1.16179 0.5 0.401463 0.00247176
0.574156 0.5 -1.0875 0.0100444
0.574156 0.5 1.0875 0.00854713
1.17463 0.5 0.364477 0.00238567
1.17463 0.5 -0.364477 0.00241997
1.20942 0.5 -0.225851 0.00218647
1.20942 0.5 0.225851 0.00216205
1.23036 0.5 -1.32995e-17 0.00203493
1.2294 0.5 0.0634819 0.00204336
1.04168 0.5 -0.656246 0.00355466
1.04168 0.5 0.656246 0.00335186
1.23036 0.5 -0.0634819 0.00203851
1.18772 0.5 0.32807 0.00230894
1.18772 0.5 -0.32807 0.002337
0.288069 0.5 -1.2 0.0167049
0.288069 0.5 1.2 0.0124479
1.23036 0.5 -0.126964 0.00205787
1.23036 0.5 0.126964 0.0020539
0.075776 0.5 -1.2375 0.020607
0.075776 0.5 1.2375 0.0159497
0.523432 0.5 -1.125 0.0112603
0.523432 0.5 1.125 0.00930231
1.0271 0.5 -0.69963 0.00381161
1.0271 0.5 0.69963 0.00354362
1.24274 0.5 0.0314313 0.00199577
1.24274 0.5 -0.0314313 0.00199386
1.20942 0.5 0.29038 0.0021997
1.20942 0.5 -0.29038 0.00222135
1.11376 0.5 -0.554494 0.00296704
1.11376 0.5 0.554494 0.00284822
1.23036 0.5 -0.190445 0.00209207
1.23036 0.5 0.190445 0.00207618
1.24274 0.5 -0.0942942 0.00200168
1.24274 0.5 0.0942942 0.00200509
1.13882 0.5 0.510442 0.00269538
1.13882 0.5 -0.510442 0.00279233
0.969689 0.5 -0.7875 0.00451526
0.969689 0.5 0.7875 0.00413001
1.00005 0.5 -0.749309 0.00419705
1.00005 0.5 0.749309 0.00385101
0.939201 0.5 -0.825 0.00479342
0.939201 0.5 0.825 0.00435821
0.90582 0.5 0.8625 0.0045789
0.90582 0.5 -0.8625 0.00509778
1.17463 0.5 -0.430746 0.0025063
1.17463 0.5 0.430746 0.00245148
1.10076 0.5 -0.594676 0.00308349
1.10076 0.5 0.594676 0.00295528
1.18772 0.5 -0.393684 0.0024066
1.18772 0.5 0.393684 0.00236663
1.24274 0.5 -0.157157 0.00203046
1.24274 0.5 0.157157 0.00202306
1.16179 0.5 -0.468373 0.00261976
1.16179 0.5 0.468373 0.00254698
0.467897 0.5 -1.1625 0.0125172
0.467897 0.5 1.1625 0.0100865
0.872064 0.5 -0.9 0.00554821
0.872064 0.5 0.9 0.00496134
1.25401 0.5 2.08167e-17 0.0019617
0.835106 0.5 0.9375 0.00536437
0.835106 0.5 -0.9375 0.00603161
1.25401 0.5 -0.0622994 0.00196445
1.25401 0.5 0.0622994 0.00196677
1.08112 0.5 -0.638498 0.00326377
1.08112 0.5 0.638498 0.00309711
1.23036 0.5 -0.253927 0.00212704
1.23036 0.5 0.253927 0.00210704
0.219992 0.5 1.2375 0.0134186
0.219992 0.5 -1.2375 0.0181998
1.25309 0.5 0.121964 0.00198013
1.05695 0.5 0.685452 0.00327773
1.05695 0.5 -0.685452 0.00350368
0.797732 0.5 0.975 0.00582607
0.797732 0.5 -0.975 0.00659139
1.25401 0.5 -0.124599 0.00198204
1.20942 0.5 -0.354909 0.00227343
1.20942 0.5 0.354909 0.0022483
1.24274 0.5 -0.220019 0.00206812
1.24274 0.5 0.220019 0.00204876
0.756814 0.5 -1.0125 0.00717422
0.756813 0.5 1.0125 0.00630255
1.25401 0.5 -0.186898 0.00201427
1.25401 0.5 0.186898 0.00200134
0.411736 0.5 -1.2 0.0140115
0.411736 0.5 1.2 0.0109159
0 0.5 -1.26882 0.0144513
0 0.5 1.26882 0.0115601
0.0124865 0.5 1.26882 0.0123098
0.0124865 0.5 -1.26882 0.0154734
0.715434 0.5 -1.05 0.00789562
0.715434 0.5 1.05 0.00686093
1.23036 0.5 -0.31741 0.00216666
1.23036 0.5 0.31741 0.00214751
1.04168 0.5 -0.729162 0.00377353
1.04168 0.5 0.729162 0.00348025
1.18772 0.5 -0.459298 0.00249736
1.18772 0.5 0.459298 0.00243683
1.24274 0.5 -0.282882 0.00209817
1.24274 0.5 0.282882 0.00208301
0 0.5 -1.275 0.0144392
0 0.5 1.275 0.0115925
1.27472 0.5 -0.0306319 0.00188987
1.27472 0.5 0.0306319 0.00189171
1.17463 0.5 0.497015 0.00253104
1.17463 0.5 -0.497015 0.00260981
1.11376 0.5 -0.623806 0.00310461
1.11376 0.5 0.623806 0.00296827
1.13882 0.5 -0.578501 0.00290208
1.13882 0.5 0.578501 0.00279078
0.67013 0.5 -1.0875 0.00864523
0.67013 0.5 1.0875 0.00743836
1.27472 0.5 -0.0918959 0.00189645
1.27472 0.5 0.0918959 0.00191307
1.25401 0.5 -0.249197 0.0020468
1.25401 0.5 0.249197 0.00203087
1.16179 0.5 -0.535284 0.0027251
1.16179 0.5 0.535284 0.00263317
1.20942 0.5 -0.419438 0.00234841
1.20942 0.5 0.419438 0.0023082
0 0.5 -1.28118 0.0144372
0 0.5 1.28118 0.0116253
0.0124865 0.5 1.28118 0.0123991
0.0124865 0.5 -1.28118 0.0154518
1.27472 0.5 0.15316 0.00191628
1.27472 0.5 -0.15316 0.00192151
0.151149 0.5 -1.275 0.0193608
0.151149 0.5 1.275 0.0148635