# nutMean  POINT_DATA 63140
# x  y  z  nutMean
0 0.1 0 0.00539208
0 0.1 -0.0179898 0.00539372
0 0.1 0.0179898 0.00538981
0.0363518 0.1 0.0179898 0.0119081
0.0363518 0.1 -0.0179898 0.0130675
0 0.1 -0.0570102 0.00540074
0 0.1 0.0570102 0.00538494
0.0363518 0.1 0.0570102 0.0119032
0.0363518 0.1 -0.0570102 0.0130745
0 0.1 -0.075 0.00540516
0 0.1 0.075 0.00538304
0.075776 0.1 -0.0375 0.0211957
0.075776 0.1 0.0375 0.0188463
0 0.1 -0.0929898 0.00540888
0 0.1 0.0929898 0.00538056
0.0363518 0.1 -0.0929898 0.0143087
0.0363518 0.1 0.0929898 0.0109099
0 0.1 -0.13201 0.00542552
0 0.1 0.13201 0.0053778
0.075776 0.1 -0.1125 0.0236699
0.075776 0.1 0.1125 0.0168197
0.0363518 0.1 -0.13201 0.0143254
0.0363518 0.1 0.13201 0.0109071
0 0.1 -0.15 0.00543732
0 0.1 0.15 0.00537804
0.150379 0.1 -2.22623e-17 0.0176804
0 0.1 -0.16799 0.00544811
0 0.1 0.16799 0.00537795
0.150379 0.1 -0.075 0.0188612
0.150379 0.1 0.075 0.0166099
0.0363518 0.1 -0.16799 0.014704
0.0363518 0.1 0.16799 0.010054
0.075776 0.1 -0.1875 0.0244198
0.075776 0.1 0.1875 0.0150727
0 0.1 -0.20701 0.00547379
0 0.1 0.20701 0.00538025
0.0363518 0.1 -0.20701 0.0147297
0.0363518 0.1 0.20701 0.0100563
0.150379 0.1 -0.15 0.0196537
0.150379 0.1 0.15 0.0155488
0.219993 0.1 -0.0375 0.0154369
0.219993 0.1 0.0375 0.0154388
0 0.1 -0.225 0.00548753
0 0.1 0.225 0.00538282
0 0.1 -0.24299 0.0055002
0 0.1 0.24299 0.00538556
0.0363518 0.1 0.24299 0.00935074
0.0363518 0.1 -0.24299 0.0146063
0.219993 0.1 -0.1125 0.0154435
0.219993 0.1 0.1125 0.0154342
0.150379 0.1 -0.225 0.0197768
0.150379 0.1 0.225 0.0141651
0.075776 0.1 -0.2625 0.024137
0.075776 0.1 0.2625 0.013618
0 0.1 -0.28201 0.00553455
0 0.1 0.28201 0.00538996
0.0363518 0.1 -0.28201 0.0146406
0.0363518 0.1 0.28201 0.00935514
0.287374 0.1 -2.89121e-19 0.0128447
0.219992 0.1 0.1875 0.0149031
0.219992 0.1 -0.1875 0.0154556
0.287374 0.1 -0.075 0.0129039
0.287374 0.1 0.075 0.0127993
0 0.1 -0.3 0.00555483
0 0.1 0.3 0.00539189
0 0.1 0.31799 0.0053943
0 0.1 -0.31799 0.00557442
0.0363518 0.1 -0.31799 0.0138995
0.0363518 0.1 0.31799 0.00881077
0.287374 0.1 0.15 0.0126042
0.287374 0.1 -0.15 0.0129629
0.150379 0.1 -0.3 0.0193503
0.150379 0.1 0.3 0.0128929
0.219993 0.1 0.2625 0.0130811
0.219993 0.1 -0.2625 0.0154777
0.075776 0.1 -0.3375 0.0226275
0.075776 0.1 0.3375 0.0124973
0.350249 0.1 -0.0375 0.010414
0.350249 0.1 0.0375 0.0102957
0 0.1 -0.35701 0.00562224
0 0.1 0.35701 0.00539282
0.0363518 0.1 -0.35701 0.0139473
0.0363518 0.1 0.35701 0.00880929
0.287374 0.1 -0.225 0.0130099
0.287374 0.1 0.225 0.0119242
0.350249 0.1 -0.1125 0.0105265
0.350249 0.1 0.1125 0.0102361
0 0.1 -0.375 0.00564889
0 0.1 0.375 0.00538984
0 0.1 -0.39299 0.00567537
0 0.1 0.39299 0.00538714
0.0363518 0.1 -0.39299 0.0130117
0.0363518 0.1 0.39299 0.00848997
0.350249 0.1 -0.1875 0.0106304
0.350249 0.1 0.1875 0.0100525
0.219992 0.1 -0.3375 0.015495
0.219992 0.1 0.3375 0.0123805
0.150379 0.1 0.375 0.0121574
0.150379 0.1 -0.375 0.0185053
0.411108 0.1 4.33681e-19 0.00869026
0.287374 0.1 -0.3 0.0130272
0.287374 0.1 0.3 0.0112191
0.411108 0.1 -0.075 0.00876818
0.411108 0.1 0.075 0.00863641
0.075776 0.1 -0.4125 0.0207419
0.075776 0.1 0.4125 0.0118387
0 0.1 0.43201 0.0053765
0 0.1 -0.43201 0.0057252
0.0363518 0.1 0.43201 0.00847934
0.0363518 0.1 -0.43201 0.0130615
0.411108 0.1 -0.15 0.00885344
0.411108 0.1 0.15 0.00858458
0.350249 0.1 -0.2625 0.0106798
0.350249 0.1 0.2625 0.00983374
0 0.1 -0.45 0.00574828
0 0.1 0.45 0.00536992
0.219992 0.1 0.4125 0.011906
0.219992 0.1 -0.4125 0.0154238
0 0.1 -0.46799 0.00577163
0 0.1 0.46799 0.00536324
0.411108 0.1 -0.225 0.00892984
0.411108 0.1 0.225 0.00850113
0.467897 0.1 -0.0375 0.00710865
0.467897 0.1 0.0375 0.00707911
0.0363518 0.1 0.46799 0.00829799
0.0363518 0.1 -0.46799 0.0118283
0.287374 0.1 -0.375 0.0130174
0.287374 0.1 0.375 0.0108983
0.150379 0.1 0.45 0.0119199
0.150379 0.1 -0.45 0.0172598
0.467897 0.1 0.1125 0.00706711
0.467897 0.1 -0.1125 0.00716448
0.350249 0.1 -0.3375 0.0106603
0.350249 0.1 0.3375 0.00970648
0.075776 0.1 -0.4875 0.0182679
0.075776 0.1 0.4875 0.0114664
0.467897 0.1 0.1875 0.00710763
0.467897 0.1 -0.1875 0.00723629
0 0.1 -0.50701 0.00580538
0 0.1 0.50701 0.0053459
0.0363518 0.1 -0.50701 0.0118621
0.0363518 0.1 0.50701 0.00828064
0.411108 0.1 0.3 0.00842704
0.411108 0.1 -0.3 0.00898117
0.522865 0.1 1.41031e-17 0.00614948
0 0.1 -0.525 0.0058171
0 0.1 0.525 0.00533654
0.522865 0.1 -0.075 0.00618204
0.522865 0.1 0.075 0.00614058
0.287374 0.1 0.45 0.0109366
0.287374 0.1 -0.45 0.0128133
0.219992 0.1 0.4875 0.0124387
0.219992 0.1 -0.4875 0.0148094
0.467897 0.1 -0.2625 0.00731748
0.467897 0.1 0.2625 0.00712424
0.350249 0.1 -0.4125 0.010701
0.350249 0.1 0.4125 0.00970519
0 0.1 -0.54299 0.00582891
0 0.1 0.54299 0.0053268
0.522865 0.1 0.15 0.00616063
0.522865 0.1 -0.15 0.0062372
0.0363518 0.1 0.54299 0.00814146
0.0363518 0.1 -0.54299 0.0110411
0.150379 0.1 -0.525 0.0160476
0.150379 0.1 0.525 0.0120409
0.411108 0.1 -0.375 0.00904895
0.411108 0.1 0.375 0.00842003
0.075776 0.1 -0.5625 0.0166131
0.075776 0.1 0.5625 0.0111811
0.522865 0.1 -0.225 0.00630891
0.522865 0.1 0.225 0.00619869
0.574156 0.1 0.0375 0.00523583
0.574157 0.1 -0.0375 0.00524547
0.467897 0.1 -0.3375 0.00740876
0.467897 0.1 0.3375 0.00714892
0 0.1 -0.58201 0.0058436
0 0.1 0.58201 0.00530753
0.0363518 0.1 -0.58201 0.0110558
0.0363518 0.1 0.58201 0.00812219
0.574157 0.1 -0.1125 0.00528148
0.574157 0.1 0.1125 0.00525047
0.287374 0.1 -0.525 0.0125916
0.287374 0.1 0.525 0.0112622
0 0.1 -0.6 0.00584795
0 0.1 0.6 0.00529917
0.350249 0.1 0.4875 0.0098037
0.350249 0.1 -0.4875 0.010538
0.522865 0.1 -0.3 0.00639354
0.522865 0.1 0.3 0.00624217
0.219992 0.1 -0.5625 0.0146384
0.219992 0.1 0.5625 0.0130097
0.574156 0.1 -0.1875 0.00533912
0.574156 0.1 0.1875 0.00528701
0.411108 0.1 0.45 0.00849647
0.411108 0.1 -0.45 0.0090784
0 0.1 -0.61799 0.00585197
0 0.1 0.61799 0.00529019
0.150379 0.1 -0.6 0.0152629
0.150379 0.1 0.6 0.0120245
0.0363518 0.1 -0.61799 0.0104809
0.0363518 0.1 0.61799 0.00800938
0.467897 0.1 -0.4125 0.00756302
0.467897 0.1 0.4125 0.00722148
0.623803 0.1 2.34188e-17 0.00467661
0.623803 0.1 0.075 0.00467972
0.623803 0.1 -0.075 0.00469781
0.574156 0.1 0.2625 0.00534478
0.574156 0.1 -0.2625 0.00541565
0.623803 0.1 0.15 0.00470573
0.623803 0.1 -0.15 0.00474188
0.075776 0.1 0.6375 0.0109485
0.075776 0.1 -0.6375 0.015445
0.522865 0.1 -0.375 0.00651358
0.522865 0.1 0.375 0.00630743
0 0.1 0.65701 0.00527435
0 0.1 -0.65701 0.00584995
0.0363518 0.1 0.65701 0.00799354
0.0363518 0.1 -0.65701 0.0104789
0.350249 0.1 0.5625 0.00992658
0.350249 0.1 -0.5625 0.0105974
0.623803 0.1 0.225 0.00475256
0.623803 0.1 -0.225 0.00480588
0.287374 0.1 -0.6 0.0125533
0.287374 0.1 0.6 0.0114201
0.574157 0.1 -0.3375 0.00550529
0.574157 0.1 0.3375 0.00541782
0.411108 0.1 0.525 0.00863769
0.411108 0.1 -0.525 0.00910437
0.67013 0.1 0.0375 0.00412803
0.67013 0.1 -0.0375 0.00413635
0.219992 0.1 -0.6375 0.0144346
0.219993 0.1 0.6375 0.0128701
0 0.1 -0.675 0.00584519
0 0.1 0.675 0.00526845
0.467897 0.1 -0.4875 0.00764294
0.467897 0.1 0.4875 0.00735711
0.67013 0.1 -0.1125 0.00416726
0.67013 0.1 0.1125 0.00414375
0.522865 0.1 0.45 0.00641239
0.522865 0.1 -0.45 0.0066424
0.150379 0.1 0.675 0.0118151
0.150379 0.1 -0.675 0.0147698
0.623803 0.1 0.3 0.00481783
0.623803 0.1 -0.3 0.00488538
0 0.1 -0.69299 0.00583973
0 0.1 0.69299 0.00526189
0.0363518 0.1 -0.69299 0.0101864
0.0363518 0.1 0.69299 0.0079042
0.67013 0.1 -0.1875 0.00421917
0.67013 0.1 0.1875 0.00418082
0.574156 0.1 0.4125 0.00550737
0.574157 0.1 -0.4125 0.0056505
0.714971 0.1 -2.8382e-17 0.00376325
0.075776 0.1 -0.7125 0.0148456
0.075776 0.1 0.7125 0.0107637
0.714971 0.1 -0.075 0.00378337
0.714971 0.1 0.075 0.00376491
0.67013 0.1 0.2625 0.0042367
0.67013 0.1 -0.2625 0.00428926
0.411108 0.1 -0.6 0.0092299
0.411108 0.1 0.6 0.00879345
0.350249 0.1 0.6375 0.0100108
0.350249 0.1 -0.6375 0.0107497
0.623803 0.1 0.375 0.00489872
0.623803 0.1 -0.375 0.0049967
0.714971 0.1 -0.15 0.00382399
0.714971 0.1 0.15 0.00378818
0.467897 0.1 -0.5625 0.00776814
0.467897 0.1 0.5625 0.00756432
0 0.1 -0.73201 0.0058238
0 0.1 0.73201 0.00525125
0.0363518 0.1 0.73201 0.00789357
0.0363518 0.1 -0.73201 0.0101705
0.287374 0.1 -0.675 0.0125597
0.287374 0.1 0.675 0.0113558
0.522865 0.1 -0.525 0.00677032
0.522865 0.1 0.525 0.00657078
0.219993 0.1 -0.7125 0.0143994
0.219992 0.1 0.7125 0.0125898
0.714971 0.1 -0.225 0.00388334
0.714971 0.1 0.225 0.00383108
0 0.1 0.75 0.00524787
0 0.1 -0.75 0.00581482
0.67013 0.1 -0.3375 0.00437116
0.67013 0.1 0.3375 0.00431102
0.574156 0.1 -0.4875 0.00578569
0.574157 0.1 0.4875 0.00562966
0.756813 0.1 0.0375 0.00340058
0.756814 0.1 -0.0375 0.00341151
0.150379 0.1 0.746002 0.0115955
0.150379 0.1 -0.75 0.0147286
0.756813 0.1 -0.1125 0.00344177
0.756813 0.1 0.1125 0.00341086
0 0.1 0.76799 0.00524378
0 0.1 -0.76799 0.00580453
0.0363518 0.1 0.76799 0.00782655
0.0363518 0.1 -0.76799 0.009946
0.623803 0.1 -0.45 0.00513278
0.623803 0.1 0.45 0.00500075
0.714971 0.1 -0.3 0.00395816
0.714971 0.1 0.3 0.0038923
0.756814 0.1 -0.1875 0.00349122
0.756814 0.1 0.1875 0.00344107
0.67013 0.1 -0.4125 0.00450009
0.67013 0.1 0.4125 0.00439766
0.411108 0.1 0.675 0.00893508
0.411108 0.1 -0.675 0.00938894
0.467897 0.1 0.6375 0.00777316
0.467897 0.1 -0.6375 0.00793882
0.075776 0.1 0.7875 0.010625
0.075776 0.1 -0.7875 0.0143876
0.350249 0.1 -0.7125 0.0108562
0.350249 0.1 0.7125 0.0100794
0.522865 0.1 -0.6 0.00693918
0.522865 0.1 0.6 0.00677184
0.797314 0.1 -3.59473e-17 0.00314416
0.287374 0.1 0.746002 0.0112841
0.797314 0.1 -0.075 0.00316452
0.797314 0.1 0.075 0.00314264
0.756814 0.1 -0.2625 0.00355724
0.756814 0.1 0.2625 0.00348968
0.287374 0.1 -0.75 0.0128103
0.574156 0.1 -0.5625 0.00595616
0.574156 0.1 0.5625 0.00579956
0 0.1 0.80701 0.00523863
0 0.1 -0.80701 0.00578301
0.714971 0.1 -0.375 0.00405895
0.714971 0.1 0.375 0.00396923
0.0363518 0.1 0.80701 0.0078214
0.0363518 0.1 -0.80701 0.00992448
0.797314 0.1 -0.15 0.00320311
0.797314 0.1 0.15 0.00316009
0.623803 0.1 -0.525 0.00528423
0.623803 0.1 0.525 0.00513591
0.219992 0.1 0.7875 0.0123479
0.219992 0.1 -0.7875 0.015292
0.149792 0.1 0.80701 0.0114716
0 0.1 0.825 0.00523803
0 0.1 -0.825 0.00577306
0.797314 0.1 -0.225 0.00325866
0.797314 0.1 0.225 0.0031956
0.756813 0.1 -0.3375 0.00363849
0.756813 0.1 0.3375 0.00355598
0.67013 0.1 0.4875 0.00450757
0.67013 0.1 -0.4875 0.00463532
0.835106 0.1 -0.0375 0.00289567
0.835106 0.1 0.0375 0.00288385
0.150379 0.1 -0.825 0.0147689
0.835106 0.1 -0.1125 0.00292412
0.835106 0.1 0.1125 0.0028903
0 0.1 -0.84299 0.00576136
0 0.1 0.84299 0.00523666
0.0363518 0.1 -0.84299 0.00972957
0.0363518 0.1 0.84299 0.00777855
0.714971 0.1 -0.45 0.0041851
0.714971 0.1 0.45 0.0040628
0.411108 0.1 0.746002 0.00907711
0.797314 0.1 -0.3 0.00332963
0.797314 0.1 0.3 0.00324807
0.467897 0.1 -0.7125 0.0081499
0.467897 0.1 0.7125 0.00798019
0.522865 0.1 0.675 0.00699216
0.522865 0.1 -0.675 0.00714323
0.411108 0.1 -0.75 0.00954242
0.835106 0.1 -0.1875 0.00297038
0.835107 0.1 0.1875 0.0029133
0.286844 0.1 0.80701 0.0112064
0.574156 0.1 0.6375 0.00602012
0.574157 0.1 -0.6375 0.00616582
0.350249 0.1 -0.7875 0.0109063
0.350249 0.1 0.7875 0.0101398
0.756813 0.1 -0.4125 0.00374979
0.756814 0.1 0.4125 0.00363658
0.623803 0.1 -0.6 0.0054695
0.623803 0.1 0.6 0.00531226
0.075776 0.1 0.8625 0.0105362
0.075776 0.1 -0.8625 0.0139877
0.871687 0.1 -3.2767e-18 0.00269524
0.287374 0.1 -0.825 0.0130778
0.871687 0.1 -0.075 0.00271579
0.871687 0.1 0.075 0.00269125
0.67013 0.1 -0.5625 0.00480033
0.67013 0.1 0.5625 0.00464694
0.835106 0.1 0.2625 0.00295374
0.835106 0.1 -0.2625 0.00303096
0.797314 0.1 -0.375 0.00341975
0.797314 0.1 0.375 0.00331664
0 0.1 -0.88201 0.00573953
0 0.1 0.88201 0.0052371
0.0363518 0.1 0.88201 0.00777899
0.0363518 0.1 -0.88201 0.00970773
0.871687 0.1 0.15 0.00270348
0.871687 0.1 -0.15 0.00275335
0.714971 0.1 0.525 0.00417951
0.714971 0.1 -0.525 0.00433123
0.219993 0.1 0.8625 0.0121755
0.219992 0.1 -0.8625 0.0153765
0 0.1 0.9 0.00523913
0 0.1 -0.9 0.00573014
0.756813 0.1 0.4875 0.00373392
0.756814 0.1 -0.4875 0.00387921
0.871687 0.1 0.225 0.00273158
0.871687 0.1 -0.225 0.0028067
0.835106 0.1 -0.3375 0.0031071
0.835106 0.1 0.3375 0.00300855
0.41063 0.1 0.80701 0.00915823
0.90582 0.1 -0.0375 0.00251223
0.905821 0.1 0.0375 0.00249899
0.522865 0.1 0.746002 0.00721253
0.150379 0.1 0.9 0.0113376
0.90582 0.1 0.1125 0.00250169
0.905821 0.1 -0.1125 0.00254088
0.522865 0.1 -0.75 0.00736834
0.574156 0.1 0.7125 0.00626751
0.574156 0.1 -0.7125 0.00639358
0.797314 0.1 -0.45 0.00353261
0.797314 0.1 0.45 0.00339946
0.467897 0.1 -0.7875 0.00839352
0.467897 0.1 0.7875 0.00817265
0.150379 0.1 -0.903998 0.0146535
0 0.1 0.91799 0.00524032
0 0.1 -0.91799 0.00571894
0.0363518 0.1 0.91799 0.00775997
0.0363518 0.1 -0.91799 0.00953277
0.623803 0.1 0.675 0.00552711
0.623803 0.1 -0.675 0.00568482
0.411108 0.1 -0.825 0.00966436
0.871687 0.1 0.3 0.00277508
0.871687 0.1 -0.3 0.00287248
0.67013 0.1 -0.6375 0.00499681
0.67013 0.1 0.6375 0.00482411
0.90582 0.1 -0.1875 0.00258773
0.90582 0.1 0.1875 0.00251857
0.350249 0.1 0.8625 0.0101864
0.350249 0.1 -0.8625 0.0109527
0.835106 0.1 -0.4125 0.0031992
0.835106 0.1 0.4125 0.00308139
0.714971 0.1 -0.6 0.00450622
0.714971 0.1 0.6 0.0043256
0.93886 0.1 -1.15648e-17 0.00240237
0.075776 0.1 0.9375 0.0104963
0.075776 0.1 -0.9375 0.0136283
0.93886 0.1 0.075 0.00239751
0.93886 0.1 -0.075 0.00242202
0.756813 0.1 0.5625 0.00385458
0.756814 0.1 -0.5625 0.00403421
0.905821 0.1 -0.2625 0.00264743
0.905821 0.1 0.2625 0.00255084
0.287374 0.1 0.9 0.0111427
0.287374 0.1 -0.903998 0.013076
0.871687 0.1 0.375 0.00283366
0.871687 0.1 -0.375 0.00295253
0.93886 0.1 -0.15 0.00245809
0.93886 0.1 0.15 0.00240678
0.797314 0.1 0.525 0.00350057
0.797314 0.1 -0.525 0.00366937
0 0.1 0.95701 0.00524585
0 0.1 -0.95701 0.0056988
0.0363518 0.1 0.95701 0.0077655
0.0363518 0.1 -0.95701 0.00951263
0.522433 0.1 0.80701 0.00735356
0.219992 0.1 0.9375 0.0120652
0.219992 0.1 -0.9375 0.0154108
0.93886 0.1 0.225 0.00242955
0.93886 0.1 -0.225 0.00250822
0.90582 0.1 0.3375 0.00259756
0.905821 0.1 -0.3375 0.00271426
0.835106 0.1 -0.4875 0.00331821
0.835107 0.1 0.4875 0.0031622
0.969689 0.1 -0.0375 0.00230691
0.969689 0.1 0.0375 0.00229553
0.61613 0.1 0.75 0.00575902
0.574156 0.1 -0.7875 0.00661942
0.574156 0.1 0.7875 0.00648757
0 0.1 0.975 0.00525023
0 0.1 -0.975 0.00569053
0.623803 0.1 -0.75 0.00591668
0.969689 0.1 -0.1125 0.00233234
0.969689 0.1 0.1125 0.002298
0.522865 0.1 -0.825 0.00758227
0.67013 0.1 0.7125 0.00504028
0.67013 0.1 -0.7125 0.00522519
0.871687 0.1 -0.45 0.00305751
0.871687 0.1 0.45 0.00290628
0.467897 0.1 0.8625 0.00831064
0.467897 0.1 -0.8625 0.00853166
0.714971 0.1 -0.675 0.00471337
0.714971 0.1 0.675 0.00450597
0.93886 0.1 -0.3 0.00256631
0.93886 0.1 0.3 0.00246602
0.150379 0.1 0.975 0.0112849
0.150379 0.1 -0.975 0.0144597
0.969689 0.1 -0.1875 0.00237574
0.969689 0.1 0.1875 0.00231303
0.411108 0.1 0.9 0.00926601
0.756813 0.1 0.6375 0.00400253
0.756814 0.1 -0.6375 0.0042181
0.990306 0.1 -2.19732e-17 0.00221148
0 0.1 0.99299 0.00525371
0 0.1 -0.99299 0.00568037
0.411108 0.1 -0.903998 0.00970229
0.990306 0.1 -0.075 0.00222905
0.990306 0.1 0.075 0.00220706
0.0363518 0.1 0.99299 0.0077643
0.0363518 0.1 -0.99299 0.00935782
0.90582 0.1 -0.4125 0.00279959
0.905821 0.1 0.4125 0.00265777
0.797314 0.1 -0.6 0.00383212
0.797314 0.1 0.6 0.0036257
0.350249 0.1 0.9375 0.010243
0.350249 0.1 -0.9375 0.0109868
0.990306 0.1 0.15 0.00221521
0.990306 0.1 -0.15 0.00226195
0.969689 0.1 -0.2625 0.00242645
0.969689 0.1 0.2625 0.00234002
0.835106 0.1 -0.5625 0.00346201
0.835106 0.1 0.5625 0.00326818
0.93886 0.1 -0.375 0.00263938
0.93886 0.1 0.375 0.00251533
0.075776 0.1 1.0125 0.0104933
0.075776 0.1 -1.0125 0.0133102
0.990306 0.1 -0.225 0.00230762
0.990306 0.1 0.225 0.0022354
0.287374 0.1 0.975 0.0111366
0.287374 0.1 -0.975 0.013158
0.871687 0.1 -0.525 0.00319001
0.871687 0.1 0.525 0.00299332
1.02149 0.1 -0.0369628 0.0020486
1.02149 0.1 0.0369628 0.00203899
0.969689 0.1 -0.3375 0.00248181
0.969689 0.1 0.3375 0.00238005
1.02149 0.1 -0.110888 0.0020705
1.02149 0.1 0.110888 0.00203961
0.90582 0.1 0.4875 0.00273457
0.90582 0.1 -0.4875 0.00292305
0.623803 0.1 0.819003 0.00586779
0 0.1 1.03201 0.00526378
0 0.1 -1.03201 0.00566254
0.0363518 0.1 1.03201 0.00777437
0.0363518 0.1 -1.03201 0.00933999
0.67013 0.1 -0.7875 0.00547315
0.67013 0.1 0.7875 0.0052864
0.623803 0.1 -0.825 0.00615485
0.990306 0.1 -0.3 0.00236129
0.990306 0.1 0.3 0.00226782
0.219992 0.1 -1.0125 0.0154232
0.219993 0.1 1.0125 0.0120098
0.574156 0.1 0.8625 0.00670405
0.574157 0.1 -0.8625 0.00687297
0.714971 0.1 -0.75 0.00494976
0.714971 0.1 0.75 0.00472045
1.02149 0.1 0.184814 0.00205195
1.02149 0.1 -0.184814 0.00210693
0.756814 0.1 -0.7125 0.00443845
0.756814 0.1 0.7125 0.00418391
0.522865 0.1 0.9 0.00756842
0.93886 0.1 -0.45 0.00274707
0.93886 0.1 0.45 0.00257826
1.04168 0.1 0 0.00196183
1.04168 0.1 -0.0729162 0.00197662
1.04168 0.1 0.0729162 0.00195698
0.522865 0.1 -0.903998 0.00771101
0.797314 0.1 -0.675 0.00402435
0.797314 0.1 0.675 0.00377665
0.467897 0.1 0.9375 0.00843149
0.467897 0.1 -0.9375 0.00857916
0 0.1 1.05 0.00527026
0 0.1 -1.05 0.00565573
0.835106 0.1 -0.6375 0.0036306
0.835106 0.1 0.6375 0.00339457
1.04168 0.1 -0.145832 0.00200337
1.04168 0.1 0.145832 0.00196157
1.02149 0.1 -0.25874 0.00215421
1.02149 0.1 0.25874 0.00207508
0.969689 0.1 -0.4125 0.00256672
0.969689 0.1 0.4125 0.00243052
0.411108 0.1 0.975 0.00935255
0.411108 0.1 -0.975 0.00977657
0.871687 0.1 -0.6 0.00334546
0.871687 0.1 0.6 0.00309927
1.0579 0.1 -0.0360525 0.00190827
1.0579 0.1 0.0360525 0.00189884
0.990306 0.1 -0.375 0.00243309
0.990306 0.1 0.375 0.00231204
0.150379 0.1 1.05 0.0112766
0.150379 0.1 -1.05 0.0143172
1.0579 0.1 0.108157 0.00189763
1.0579 0.1 -0.108157 0.00192762
1.04168 0.1 -0.218749 0.00204179
1.04168 0.1 0.218749 0.00197592
0.90582 0.1 -0.5625 0.00306663
0.90582 0.1 0.5625 0.00281943
0 0.1 -1.06799 0.00564689
0 0.1 1.06799 0.00527577
0.0363518 0.1 -1.06799 0.00920395
0.0363518 0.1 1.06799 0.00779048
0.350249 0.1 1.0125 0.0103223
0.350249 0.1 -1.0125 0.0110141
1.0579 0.1 -0.180262 0.00195809
1.0579 0.1 0.180262 0.0019046
1.02149 0.1 -0.332665 0.00221467
1.02149 0.1 0.332665 0.00211004
0.93886 0.1 -0.525 0.00288068
0.93886 0.1 0.525 0.00265265
1.08012 0.1 5.49329e-18 0.00183435
1.04168 0.1 -0.291665 0.00209214
1.04168 0.1 0.291665 0.00200019
1.08012 0.1 0.0709941 0.00182958
1.08012 0.1 -0.0709941 0.00184746
0.969689 0.1 -0.4875 0.0027036
0.96969 0.1 0.4875 0.00249502
1.0579 0.1 0.252367 0.00192018
1.0579 0.1 -0.252367 0.00199872
0.990306 0.1 -0.45 0.00253928
0.990306 0.1 0.45 0.00236869
0.287374 0.1 -1.05 0.0131758
0.287374 0.1 1.05 0.0111679
0.714971 0.1 0.821002 0.0049242
1.08012 0.1 -0.141988 0.00187088
1.08012 0.1 0.141988 0.00183237
0.075776 0.1 1.0875 0.010526
0.075776 0.1 -1.0875 0.0130306
0.714971 0.1 -0.825 0.00519176
0.756813 0.1 -0.7875 0.00468795
0.756814 0.1 0.7875 0.00439951
0.67013 0.1 -0.8625 0.00570584
0.67013 0.1 0.8625 0.00551093
0.797314 0.1 -0.75 0.00424725
0.797314 0.1 0.75 0.00395734
0.623803 0.1 0.9 0.00619998
0.835106 0.1 -0.7125 0.00382729
0.835106 0.1 0.7125 0.00354341
0.623803 0.1 -0.903998 0.0063467
0.574156 0.1 0.9375 0.00691502
0.574156 0.1 -0.9375 0.00707454
1.02149 0.1 -0.406591 0.00229979
1.02149 0.1 0.406591 0.00215635
1.08012 0.1 -0.212982 0.00190466
1.08012 0.1 0.212982 0.00184299
1.10076 0.1 -0.0349809 0.0017744
1.10076 0.1 0.0349809 0.00176705
0.871687 0.1 -0.675 0.00352569
0.871687 0.1 0.675 0.00322952
1.04168 0.1 -0.364581 0.00215936
1.04168 0.1 0.364581 0.00203492
1.10076 0.1 -0.104943 0.00179078
1.10076 0.1 0.104943 0.0017664
0.522865 0.1 0.975 0.00770655
0.522865 0.1 -0.975 0.00783491
1.0579 0.1 -0.324472 0.00205364
1.0579 0.1 0.324472 0.00194476
0 0.1 -1.10701 0.00563226
0 0.1 1.10701 0.00529007
0.0363518 0.1 1.10701 0.00780478
0.0363518 0.1 -1.10701 0.00918932
0.90582 0.1 0.6375 0.00292647
0.905821 0.1 -0.6375 0.00323237
0.219992 0.1 1.0875 0.0120042
0.219992 0.1 -1.0875 0.0154297
0.93886 0.1 0.6 0.00275169
0.93886 0.1 -0.6 0.00302872
1.10076 0.1 -0.174905 0.00181886
1.10076 0.1 0.174905 0.00177351
0.467897 0.1 1.0125 0.00852127
0.467897 0.1 -1.0125 0.00862264
1.08012 0.1 -0.283976 0.00194968
1.08012 0.1 0.283976 0.00186159
1.11928 0.1 3.93204e-18 0.00172228
0.990306 0.1 -0.525 0.00266412
0.990306 0.1 0.525 0.00243722
0.96969 0.1 -0.5625 0.00283404
0.969689 0.1 0.5625 0.00256667
1.11928 0.1 -0.0690357 0.00173345
1.11928 0.1 0.0690357 0.0017182
0 0.1 1.125 0.0052986
0 0.1 -1.125 0.0056273
0.411108 0.1 -1.05 0.00981406
0.411108 0.1 1.05 0.0094287
1.10076 0.1 0.244866 0.00178809
1.10076 0.1 -0.244866 0.0018562
1.11928 0.1 -0.138072 0.00175451
1.11928 0.1 0.138072 0.00172068
1.02149 0.1 0.480517 0.00221565
1.02149 0.1 -0.480517 0.00240297
1.0579 0.1 -0.396577 0.00212475
1.0579 0.1 0.396577 0.00197918
1.04168 0.1 -0.437497 0.00224424
1.04168 0.1 0.437497 0.0020807
0.150379 0.1 1.125 0.0113118
0.150379 0.1 -1.125 0.0141893
0.714971 0.1 0.88201 0.00489424
1.08012 0.1 0.354971 0.00188881
1.08012 0.1 -0.354971 0.00200836
1.11928 0.1 -0.207107 0.00178575
1.11928 0.1 0.207107 0.00173017
0.350249 0.1 -1.0875 0.0110382
0.350249 0.1 1.0875 0.010426
0 0.1 1.14299 0.00530605
0 0.1 -1.14299 0.00562032
0.0363518 0.1 1.14299 0.00783447
0.0363518 0.1 -1.14299 0.00907538
1.14316 0.1 -0.0339211 0.00165721
1.14316 0.1 0.0339211 0.00165037
0.797314 0.1 0.821002 0.00416485
1.10076 0.1 -0.314829 0.00190501
1.10076 0.1 0.314829 0.00181008
0.797314 0.1 -0.825 0.00448903
0.756814 0.1 -0.8625 0.00492952
0.756814 0.1 0.8625 0.00463736
1.14316 0.1 -0.101763 0.00167138
1.14316 0.1 0.101763 0.00164893
0.835106 0.1 -0.7875 0.00405327
0.835106 0.1 0.7875 0.00372149
0.871687 0.1 -0.75 0.00373369
0.871687 0.1 0.75 0.00338865
0.67013 0.1 0.9375 0.00572855
0.67013 0.1 -0.9375 0.00596294
0.90582 0.1 -0.7125 0.00342232
0.905821 0.1 0.7125 0.0030655
0.714971 0.1 -0.903998 0.00539277
1.11928 0.1 0.276143 0.00174654
1.11928 0.1 -0.276143 0.00182632
1.14316 0.1 0.169605 0.00165378
1.14316 0.1 -0.169605 0.0016964
0.93886 0.1 -0.675 0.0031978
0.93886 0.1 0.675 0.00287246
1.15704 0.1 0 0.00161857
1.0579 0.1 0.468682 0.00202399
1.0579 0.1 -0.468682 0.00220779
0.623803 0.1 0.975 0.00639425
0.623803 0.1 -0.975 0.00655757
0.990306 0.1 0.6 0.00253462
0.990306 0.1 -0.6 0.00280021
1.15704 0.1 -0.0671479 0.00162858
1.15704 0.1 0.0671479 0.00161446
1.04168 0.1 -0.510414 0.00234092
1.04168 0.1 0.510414 0.00213959
0.969689 0.1 -0.6375 0.00298667
0.969689 0.1 0.6375 0.00269906
1.08012 0.1 0.425965 0.00192519
1.08012 0.1 -0.425965 0.0020802
0.287374 0.1 -1.125 0.0131859
0.287374 0.1 1.125 0.0112248
1.02149 0.1 -0.554443 0.00251385
1.02149 0.1 0.554443 0.00229014
0.574156 0.1 1.0125 0.00704647
0.574156 0.1 -1.0125 0.00713068
1.15704 0.1 -0.134296 0.00164748
1.15704 0.1 0.134296 0.00161589
0.075776 0.1 1.1625 0.0105869
0.075776 0.1 -1.1625 0.0127959
1.10076 0.1 -0.384791 0.00196643
1.10076 0.1 0.384791 0.00184068
1.14316 0.1 -0.237448 0.0017297
1.14316 0.1 0.237448 0.00166479
1.11928 0.1 -0.345179 0.00187752
1.11928 0.1 0.345179 0.00177034
0.522865 0.1 1.05 0.00778322
0.522865 0.1 -1.05 0.00788813
1.15704 0.1 -0.201444 0.00167567
1.15704 0.1 0.201444 0.0016232
1.1744 0.1 -0.0331401 0.00158184
1.1744 0.1 0.0331401 0.00157541
1.1744 0.1 -0.0994202 0.0015948
1.1744 0.1 0.0994202 0.0015737
0 0.1 1.18201 0.00532385
0 0.1 -1.18201 0.00560926
0.0363518 0.1 1.18201 0.00785227
0.0363518 0.1 -1.18201 0.00906432
0.219992 0.1 1.1625 0.0120582
0.219993 0.1 -1.1625 0.0154188
1.14316 0.1 0.30529 0.0016819
1.14316 0.1 -0.30529 0.00177093
0.467897 0.1 1.0875 0.00855186
0.467897 0.1 -1.0875 0.00866415
1.1744 0.1 -0.1657 0.00161798
1.1744 0.1 0.1657 0.00157773
1.15704 0.1 -0.268592 0.00171101
1.15704 0.1 0.268592 0.00163622
1.0579 0.1 0.540787 0.00208269
1.0579 0.1 -0.540787 0.00230186
0.796996 0.1 0.88201 0.00433722
1.08012 0.1 -0.496959 0.00216446
1.08012 0.1 0.496959 0.00197256
1.10076 0.1 0.454752 0.00187941
1.10076 0.1 -0.454752 0.00204041
1.11928 0.1 -0.414214 0.00194099
1.11928 0.1 0.414214 0.0018021
1.04168 0.1 -0.58333 0.00244951
1.04168 0.1 0.58333 0.00221306
1.1744 0.1 -0.231981 0.00164827
1.1744 0.1 0.231981 0.00158678
0.871687 0.1 0.821002 0.00357298
0.411108 0.1 1.125 0.00948596
0.411108 0.1 -1.125 0.00984628
1.19808 0.1 1.73472e-17 0.00151897
0.990306 0.1 0.675 0.00264987
0.990306 0.1 -0.675 0.00295873
1.02149 0.1 0.628368 0.00238507
1.02149 0.1 -0.628368 0.00264729
1.19808 0.1 -0.0650961 0.00152856
1.19808 0.1 0.0650961 0.00151454
0 0.1 1.2 0.00533385
0 0.1 -1.2 0.00560583
0.871687 0.1 -0.825 0.00396967
0.905821 0.1 -0.7875 0.003642
0.90582 0.1 0.7875 0.00323626
0.835106 0.1 -0.8625 0.00430468
0.835106 0.1 0.8625 0.00393703
0.93886 0.1 -0.75 0.00339006
0.93886 0.1 0.75 0.00300905
1.14316 0.1 -0.373132 0.00182197
1.14316 0.1 0.373132 0.00170615
0.969689 0.1 0.7125 0.0028037
0.969689 0.1 -0.7125 0.00315499
1.15704 0.1 -0.33574 0.00175399
1.15704 0.1 0.33574 0.00165549
0.756813 0.1 0.9375 0.00485154
0.756814 0.1 -0.9375 0.00517502
1.19808 0.1 0.130192 0.00151503
1.19808 0.1 -0.130192 0.00154597
0.797314 0.1 -0.903998 0.00469315
0.714971 0.1 0.975 0.00538796
0.714971 0.1 -0.975 0.00565172
0.150379 0.1 1.2 0.0113932
0.150379 0.1 -1.2 0.0140752
1.20938 0.1 -0.0322656 0.00149874
1.20938 0.1 0.0322656 0.00149204
1.1744 0.1 -0.298261 0.00168401
1.1744 0.1 0.298261 0.00160112
1.20938 0.1 -0.0967968 0.00151095
1.20938 0.1 0.0967968 0.00148978
1.19808 0.1 -0.195288 0.0015711
1.19808 0.1 0.195288 0.00152044
0.350249 0.1 1.1625 0.0105033
0.350249 0.1 -1.1625 0.0110586
0.67013 0.1 1.0125 0.00595072
0.67013 0.1 -1.0125 0.00611755
0 0.1 1.21799 0.00534262
0 0.1 -1.21799 0.00560038
0.0363518 0.1 -1.21799 0.00897394
0.0363518 0.1 1.21799 0.00789392
1.11928 0.1 -0.48325 0.00201867
1.11928 0.1 0.48325 0.00184312
1.10076 0.1 -0.524714 0.00212938
1.10076 0.1 0.524714 0.00192975
1.20938 0.1 0.161328 0.00149268
1.20938 0.1 -0.161328 0.00153284
1.08012 0.1 0.567953 0.00203131
1.08012 0.1 -0.567953 0.00225636
0.623803 0.1 1.05 0.00652641
0.623803 0.1 -1.05 0.00664353
1.0579 0.1 -0.612892 0.00240684
1.0579 0.1 0.612892 0.00215265
1.15704 0.1 -0.402888 0.00180787
1.15704 0.1 0.402888 0.00168156
1.14316 0.1 0.440974 0.0017377
1.14316 0.1 -0.440974 0.00188636
1.19808 0.1 -0.260384 0.00160118
1.19808 0.1 0.260384 0.0015305
1.2267 0.1 3.57064e-18 0.00145801
1.2267 0.1 -0.0636649 0.00146773
1.2267 0.1 0.0636649 0.00145286
1.1744 0.1 -0.364541 0.0017272
1.1744 0.1 0.364541 0.00162165
0.574156 0.1 1.0875 0.00709319
0.574156 0.1 -1.0875 0.00718499
1.20938 0.1 0.225859 0.00149986
1.20938 0.1 -0.225859 0.00155974
1.04168 0.1 -0.656246 0.00258311
1.04168 0.1 0.656246 0.00230442
1.2267 0.1 -0.12733 0.0014845
1.2267 0.1 0.12733 0.00145231
0.287374 0.1 1.2 0.0113052
0.287374 0.1 -1.2 0.0131853
1.02149 0.1 -0.702294 0.00281079
1.02149 0.1 0.702294 0.00249727
0.075776 0.1 -1.2375 0.0126098
0.075776 0.1 1.2375 0.0106725
0.871399 0.1 0.88201 0.00373459
0.522865 0.1 1.125 0.00781998
0.522865 0.1 -1.125 0.00793527
1.2267 0.1 -0.190994 0.00150776
1.2267 0.1 0.190994 0.00145628
1.19808 0.1 -0.32548 0.00163658
1.19808 0.1 0.32548 0.00154572
0.990306 0.1 -0.75 0.00314067
0.990306 0.1 0.75 0.00276681
1.24274 0.1 -0.0314313 0.00142695
1.24274 0.1 0.0314313 0.0014193
1.20938 0.1 -0.29039 0.00159044
1.20938 0.1 0.29039 0.00151159
1.24274 0.1 -0.0942942 0.00143897
1.24274 0.1 0.0942942 0.0014157
0.93886 0.1 0.821002 0.00316622
1.11928 0.1 -0.552285 0.00210106
1.11928 0.1 0.552285 0.00189451
1.15704 0.1 -0.470036 0.00187609
1.15704 0.1 0.470036 0.00171511
0.969689 0.1 -0.7875 0.0033467
0.96969 0.1 0.7875 0.00293645
0.93886 0.1 -0.825 0.00360625
0.90582 0.1 0.8625 0.00342856
0.905821 0.1 -0.8625 0.00388925
1.1744 0.1 -0.430821 0.001783
1.1744 0.1 0.430821 0.00164847
1.10076 0.1 -0.594676 0.00221539
1.10076 0.1 0.594676 0.00198956
1.14316 0.1 -0.508816 0.00196465
1.14316 0.1 0.508816 0.00177864
1.24274 0.1 -0.157157 0.00145976
1.24274 0.1 0.157157 0.00141685
1.2267 0.1 -0.254659 0.00153465
1.2267 0.1 0.254659 0.00146448
0.467897 0.1 1.1625 0.00857034
0.467897 0.1 -1.1625 0.00869888
1.08012 0.1 0.638947 0.00210333
1.08012 0.1 -0.638947 0.00236746
1.25511 0.1 -5.78241e-19 0.00139763
0.835106 0.1 -0.9375 0.00453625
0.835106 0.1 0.9375 0.00417677
0.871687 0.1 -0.903998 0.00417665
1.25511 0.1 0.0622446 0.00139107
1.25511 0.1 -0.0622446 0.00140819
0.219992 0.1 1.2375 0.0121822
0.219992 0.1 -1.2375 0.0153874
0 0.1 -1.25701 0.00559246
0 0.1 1.25701 0.0053633
0.0363518 0.1 -1.25701 0.00896602
0.0363518 0.1 1.25701 0.0079146
0.797314 0.1 0.975 0.00461234
0.797314 0.1 -0.975 0.00496557
1.19808 0.1 -0.390576 0.00168107
1.19808 0.1 0.390576 0.00156666
1.0579 0.1 -0.684997 0.00254339
1.0579 0.1 0.684997 0.00224077
1.20938 0.1 -0.354921 0.0016271
1.20938 0.1 0.354921 0.00152859
1.25511 0.1 0.124489 0.00138885
1.25511 0.1 -0.124489 0.00142494
1.24274 0.1 -0.220019 0.00148327
1.24274 0.1 0.220019 0.00142187
0.756813 0.1 1.0125 0.00506383
0.756814 0.1 -1.0125 0.00539415
1.2267 0.1 -0.318324 0.00156603
1.2267 0.1 0.318324 0.00147736
0.411108 0.1 1.2 0.00953369
0.411108 0.1 -1.2 0.0098742
1.25511 0.1 -0.186734 0.00144679
1.25511 0.1 0.186734 0.00139092
0.714971 0.1 1.05 0.00558084
0.714971 0.1 -1.05 0.00577975
1.04168 0.1 -0.729162 0.00274406
1.04168 0.1 0.729162 0.00240219
1.24274 0.1 0.282882 0.00143113
1.24274 0.1 -0.282882 0.00150989
0 0.1 1.275 0.00537484
0 0.1 -1.275 0.0055905
1.1744 0.1 0.497102 0.00168215
1.1744 0.1 -0.497102 0.00185371
1.15704 0.1 -0.537184 0.00194776
1.15704 0.1 0.537184 0.00175781
1.2756 0.1 -0.03061 0.00135884
1.2756 0.1 0.03061 0.00134911
0.67013 0.1 1.0875 0.00607418
0.67013 0.1 -1.0875 0.00617953
1.2756 0.1 -0.09183 0.00137217
1.2756 0.1 0.09183 0.00134313
1.25511 0.1 -0.248978 0.00147102
1.25511 0.1 0.248978 0.00139704
1.20938 0.1 0.419453 0.00155128
1.20938 0.1 -0.419453 0.0016752
1.11928 0.1 -0.621322 0.00219811
1.11928 0.1 0.621322 0.00195606
1.14316 0.1 -0.576659 0.00203909
1.14316 0.1 0.576659 0.00182937
1.19808 0.1 -0.455673 0.00173859
1.19808 0.1 0.455673 0.00159338
1.02149 0.1 0.776219 0.00260781
1.02149 0.1 -0.776219 0.00300468
0.150379 0.1 1.275 0.0115235
0.150379 0.1 -1.275 0.013978
1.2756 0.1 -0.15305 0.00139232
1.2756 0.1 0.15305 0.00134169