# nutMean  POINT_DATA 91129
# x  y  z  nutMean
0 0 0 4.93096e-06
0 0.00368111 0 1.68473e-05
0 0.00749587 0 6.02696e-05
0 0.0114491 0 0.000222446
0 0.0155459 0 0.000586609
0 0.0197915 0 0.00132507
0 0.0241911 0 0.00227726
0 0.0287506 0 0.00301132
0 0.0334755 0 0.00349752
0 0.038372 0 0.00384368
0 0.0434463 0 0.00409261
0 0.0487048 0 0.00427823
0 0.0541543 0 0.00442883
0 0.0598016 0 0.00456164
0 0.0656539 0 0.00468673
0 0.0717187 0 0.00481147
0.075776 0.00184055 0 7.87987e-06
0.075776 0.00558849 0 1.20927e-05
0.075776 0.00947248 -3.46945e-18 5.63674e-05
0.075776 0.0134975 -3.46945e-18 0.000254593
0.075776 0.0176687 3.46945e-18 0.000706064
0 0.0780037 0 0.00494098
0.075776 0.0219913 3.46945e-18 0.00141846
0.075776 0.0264709 3.46945e-18 0.00241145
0.075776 0.031113 -3.46945e-18 0.00367432
0.075776 0.0359237 -3.46945e-18 0.00517325
0 0.0845169 0 0.005076
0.075776 0.0409092 0 0.00686363
0.075776 0.0460755 -3.46945e-18 0.00869451
0 0.0912666 0 0.00521497
0.075776 0.0514296 -3.46945e-18 0.0106128
0.075776 0.0569779 0 0.0125666
0 0.0982613 0 0.00535724
0.075776 0.0627278 0 0.0145031
0.075776 0.0686863 0 0.0163212
0 0.10551 0 0.0055025
0.075776 0.0748612 3.46945e-18 0.0174476
0.075776 0.0812603 -3.46945e-18 0.0181191
0 0.113022 0 0.00564993
0.075776 0.0878918 3.46945e-18 0.0187669
0 0.120806 0 0.00579871
0.075776 0.0947639 3.46945e-18 0.0194655
0.075776 0.101886 -3.46945e-18 0.020221
0 0.128874 0 0.0059484
0.075776 0.109266 3.46945e-18 0.0210465
0 0.137234 0 0.00610424
0.075776 0.116914 3.46945e-18 0.021964
0 0.145897 0 0.00628077
0.075776 0.12484 0 0.0229869
0.151552 0 0 0
0.151552 0.00368111 0 6.58123e-06
0.151552 0.00749587 0 2.28929e-05
0.151552 0.0114491 0 9.67478e-05
0.151552 0.0155459 0 0.000294022
0.151552 0.0197915 0 0.000659484
0.075776 0.133054 0 0.024129
0.151552 0.0241911 0 0.00121405
0.151552 0.0287506 0 0.00196702
0 0.154876 0 0.00648631
0.151552 0.0334755 0 0.00291047
0.151552 0.038372 0 0.0040268
0.151552 0.0434463 0 0.0052928
0.151552 0.0487048 0 0.00668178
0.075776 0.141566 0 0.0254053
0.151552 0.0541543 0 0.00816529
0.151552 0.0598016 0 0.00971384
0 0.16418 0 0.00671372
0.151552 0.0656539 0 0.0112854
0.151552 0.0717187 0 0.012712
0.075776 0.150387 0 0.0265237
0.151552 0.0780037 0 0.0139062
0.151552 0.0845169 0 0.0150205
0 0.173822 0 0.00695459
0.075776 0.159528 0 0.0270279
0.151552 0.0912666 0 0.0161672
0.151552 0.0982613 0 0.0173544
0 0.183814 0 0.00720661
0.151552 0.10551 0 0.018574
0.075776 0.169001 3.46945e-18 0.0268402
0.151552 0.113022 0 0.0198228
0.151552 0.120806 0 0.0210986
0 0.194169 0 0.00746902
0.075776 0.178818 3.46945e-18 0.0260528
0.151552 0.128874 0 0.022397
0.075776 0.188992 3.46945e-18 0.0248993
0.151552 0.137234 0 0.023716
0 0.2049 0 0.00774749
0.151552 0.145897 0 0.0249635
0.075776 0.199535 0 0.0235989
0 0.21602 0 0.00806437
0.151552 0.154876 0 0.0258995
0.219992 0.00184055 0 2.01052e-06
0.219992 0.00558849 0 4.86575e-06
0.219992 0.00947248 -3.46945e-18 1.99904e-05
0.219992 0.0134975 3.46945e-18 6.50772e-05
0.219992 0.0176687 0 0.000179018
0.219992 0.0219913 0 0.000396354
0.219993 0.0264709 -3.46945e-18 0.000737742
0.219992 0.031113 -3.46945e-18 0.00121004
0.219992 0.0359238 3.46945e-18 0.00181703
0.151552 0.16418 0 0.0263909
0.075776 0.21046 0 0.0223744
0.219992 0.0409092 3.46945e-18 0.00255959
0.219992 0.0460755 0 0.00343581
0.219993 0.0514296 -3.46945e-18 0.00444096
0.219992 0.0569779 0 0.00556731
0 0.227544 0 0.00844372
0.219992 0.0627277 3.46945e-18 0.00680579
0.219992 0.0686863 0 0.00814578
0.151552 0.173822 0 0.0265031
0.219992 0.0748612 3.46945e-18 0.00957486
0.075776 0.221782 0 0.0214622
0.219992 0.0812603 3.46945e-18 0.0110792
0.219992 0.0878917 -3.46945e-18 0.0126429
0.151552 0.183814 0 0.0263343
7.47806e-17 0.239487 0 0.0088755
0.219992 0.0947639 3.46945e-18 0.0142467
0.219993 0.101886 3.46945e-18 0.0158668
0.075776 0.233516 0 0.0209021
0.219993 0.109266 0 0.017478
0.151552 0.194169 0 0.0259455
0.219993 0.116914 0 0.0190612
0 0.251863 0 0.00933942
0.219993 0.12484 0 0.0205937
0.151552 0.2049 0 0.025404
0.075776 0.245675 0 0.020527
0.219992 0.133054 3.46945e-18 0.0220568
0.219992 0.141565 0 0.0234342
0.151552 0.21602 0 0.0248608
0 0.264688 0 0.00983269
0.219992 0.150387 3.46945e-18 0.0246446
0.075776 0.258275 3.46945e-18 0.0202963
0.219992 0.159528 -3.46945e-18 0.0255361
0.151552 0.227544 0 0.0244221
0.219992 0.169001 3.46945e-18 0.0262428
0 0.27798 0 0.0103547
0.075776 0.271334 3.46945e-18 0.0201926
0.151552 0.239487 3.70071e-18 0.0240597
0.219992 0.178818 3.46945e-18 0.0268678
0.288433 0 0 0
0.288433 0.00368111 0 2.78888e-06
0.288433 0.00749587 0 1.10224e-05
0.288433 0.0114491 0 3.52928e-05
0.288433 0.0155459 3.70071e-18 9.42186e-05
0.288433 0.0197915 0 0.00021865
0.288433 0.0241911 3.70071e-18 0.000432807
0.288433 0.0287506 0 0.000750177
0.219992 0.188991 0 0.0273858
0.288433 0.0334755 0 0.00117969
0.288433 0.038372 0 0.00172473
0.288433 0.0434463 0 0.00238634
7.47806e-17 0.291753 0 0.0109058
0.288433 0.0487048 0 0.00316342
0.288433 0.0541543 0 0.00405272
0.151552 0.251863 0 0.0237258
0.288433 0.0598016 3.70071e-18 0.00504919
0.075776 0.284866 0 0.020201
0.288433 0.0656539 3.70071e-18 0.00614589
0.219992 0.199534 0 0.0276379
0.288433 0.0717187 0 0.00733373
0.288433 0.0780037 0 0.00860134
0.288433 0.0845169 0 0.00993447
0.288433 0.0912666 0 0.0113152
0.219992 0.21046 -3.46945e-18 0.0276343
0.288433 0.0982613 0 0.0125485
0.151552 0.264688 3.70071e-18 0.0234231
0 0.306027 0 0.0114973
0.288433 0.10551 0 0.0135262
0.075776 0.29889 3.46945e-18 0.0203163
0.288433 0.113022 0 0.0144533
0.219993 0.221782 0 0.0275214
0.288433 0.120806 0 0.0153751
0.288433 0.128874 0 0.0161915
0.151552 0.27798 0 0.0232001
0.288433 0.137234 0 0.0169168
0 0.320819 0 0.0121882
0.219992 0.233515 -3.46945e-18 0.0273063
0.075776 0.313423 -3.46945e-18 0.0205847
0.288433 0.145897 0 0.0175824
0.288433 0.154876 0 0.0181484
0.151552 0.291753 0 0.0230307
0.219993 0.245675 0 0.0269913
0.288433 0.16418 0 0.0186034
0 0.336148 0 0.0130946
0.288433 0.173822 0 0.0189982
0.075776 0.328484 -3.46945e-18 0.021264
0.219993 0.258275 -3.46945e-18 0.0265813
0.151552 0.306027 0 0.0228592
0.288433 0.183814 0 0.0193477
0.288433 0.194169 0 0.0196056
0.219992 0.271334 3.46945e-18 0.026136
0.350249 0.00184056 -3.46945e-18 8.41678e-07
0.350249 0.00558849 0 3.53307e-06
0.350249 0.00947248 3.46945e-18 1.59072e-05
0.350249 0.0134975 0 4.12614e-05
0.350249 0.0176687 0 9.56101e-05
0.350249 0.0219913 0 0.000213767
0.350249 0.0264708 3.46945e-18 0.0004031
0.350249 0.031113 0 0.000682712
0 0.352034 0 0.0138715
0.350249 0.0359238 0 0.00105806
0.075776 0.344091 0 0.0226706
0.350249 0.0409091 0 0.00153237
0.350249 0.0460756 3.46945e-18 0.00210742
0.288433 0.2049 0 0.0197352
0.350249 0.0514296 0 0.00278335
0.151552 0.320819 0 0.0227651
0.350249 0.0569779 0 0.00355907
0.350249 0.0627277 3.46945e-18 0.00443171
0.350249 0.0686863 3.46945e-18 0.00539568
0.350249 0.0748612 3.46945e-18 0.00644283
0.350249 0.0812603 0 0.00756188
0.219992 0.284867 0 0.0258116
0.288433 0.21602 0 0.0197731
0.350249 0.0878917 0 0.00873677
0.350249 0.094764 0 0.00994711
0.350249 0.101886 0 0.0105017
0.350249 0.109266 0 0.01072
0.288433 0.227544 0 0.0197547
0.075776 0.360265 3.46945e-18 0.02274
0 0.368496 0 0.0141303
0.151552 0.336148 0 0.0229094
0.350249 0.116914 3.46945e-18 0.0111142
0.219992 0.29889 0 0.0253702
0.370854 0.0241911 1.54074e-33 0.000315634
0.350249 0.12484 0 0.0113846
0.350249 0.133054 0 0.011484
0.288433 0.239487 -9.25154e-19 0.0196804
0.350249 0.141566 3.46945e-18 0.0115469
0.350249 0.150387 3.46945e-18 0.0116504
0.288433 0.251863 0 0.0195499
0.219992 0.313423 0 0.0247975
0.151552 0.352034 0 0.022885
0.075776 0.377027 0 0.0219744
0.350249 0.159528 0 0.0117801
0 0.385557 0 0.0139337
0.350249 0.169001 0 0.0119224
0.288433 0.264688 0 0.0193758
0.350249 0.178818 0 0.0120671
0.219992 0.328484 0 0.0241331
0.350249 0.188992 0 0.0122094
0.151552 0.368496 0 0.0223077
0.288433 0.27798 3.70071e-18 0.019208
0.075776 0.394397 0 0.0206446
0.350249 0.199535 0 0.0123469
7.47806e-17 0.403236 0 0.0136901
0.219992 0.344091 0 0.0234261
0.350249 0.21046 -3.46945e-18 0.012478
0.288433 0.291753 0 0.0190269
0.412065 9.08189e-19 3.08149e-33 2.35396e-22
0.412065 0.00368111 -2.31298e-18 2.13702e-06
0.412065 0.00749587 -2.31298e-18 9.99634e-06
0.412065 0.0114491 -2.31298e-18 2.78597e-05
0.412065 0.0155459 -2.31298e-18 6.17444e-05
0.412065 0.0197915 0 0.000131083
0.412065 0.0241911 -3.08149e-33 0.000257047
0.412065 0.0264709 0 0.000354895
0.412065 0.0287506 -2.31298e-18 0.000452743
0.412065 0.0334755 -2.31298e-18 0.000728546
0.412065 0.038372 -2.31298e-18 0.00109133
0.151552 0.385557 0 0.0213591
0.412065 0.0434463 0 0.00154387
0.350249 0.221782 0 0.0126004
0.412065 0.0487048 0 0.00208739
0.412065 0.0541543 -3.08149e-33 0.0027217
0.412065 0.0569779 0 0.00308336
0.412065 0.0598016 -2.31298e-18 0.00344502
0.412065 0.0656539 -2.31298e-18 0.00425347
0.412065 0.0717187 -2.31298e-18 0.00514049
0.075776 0.412396 -3.46945e-18 0.0201636
0.412065 0.0780037 -2.31298e-18 0.00609624
0.288433 0.306027 0 0.0187728
0.412065 0.0845169 -2.31298e-18 0.00710654
0.350249 0.233516 3.46945e-18 0.0127106
0 0.421557 0 0.0136935
0.412065 0.0912666 -2.31298e-18 0.00803192
0.219992 0.360265 3.46945e-18 0.0226758
0.412065 0.0982613 0 0.0085936
0.412065 0.10551 0 0.00882046
0.412065 0.113022 -2.31298e-18 0.00901136
0.350249 0.245675 0 0.0128051
0.412065 0.120806 0 0.00921367
0.151552 0.403236 0 0.0204685
0.288433 0.320819 0 0.0184527
0.412065 0.128874 -2.31298e-18 0.00934156
0.412065 0.137234 0 0.00941837
0.350249 0.258275 -3.46945e-18 0.0128791
0.219992 0.377026 0 0.0218477
0.412065 0.145897 -2.31298e-18 0.00949689
0.075776 0.431051 0 0.0200998
0.412065 0.154876 -2.31298e-18 0.00959167
0 0.440544 0 0.0137933
0.288433 0.336148 0 0.0180889
0.350249 0.271334 0 0.0129265
0.412065 0.16418 -2.31298e-18 0.00969532
0.412065 0.173822 -2.31298e-18 0.00980201
0.151552 0.421557 0 0.0199107
0.412065 0.183814 -2.31298e-18 0.00990802
0.350249 0.284867 3.46945e-18 0.0129452
0.219992 0.394397 0 0.0209616
0.288433 0.352034 3.70071e-18 0.0176937
0.412065 0.194169 0 0.0100115
0.075776 0.450382 0 0.0201251
0.412065 0.2049 -2.31298e-18 0.0101114
0 0.46022 0 0.0138991
0.350249 0.29889 3.46945e-18 0.012938
0.412065 0.21602 0 0.0102068
0.151552 0.440544 0 0.0195271
0.219993 0.412396 3.46945e-18 0.0200941
0.467897 0.00184056 -3.46945e-18 6.19514e-07
0.467897 0.00558849 0 3.56093e-06
0.288433 0.368496 0 0.0172574
0.467897 0.00947248 0 1.69459e-05
0.467897 0.0134975 0 3.74259e-05
0.467897 0.0176687 3.46945e-18 7.36147e-05
0.467897 0.0219913 -3.46945e-18 0.000144636
0.467897 0.0264709 3.46945e-18 0.000273857
0.467897 0.0311131 3.46945e-18 0.000463882
0.467897 0.0359238 -3.46945e-18 0.00072931
0.467897 0.038372 0 0.000939976
0.467897 0.0409092 3.46945e-18 0.00107402
0.350249 0.313423 0 0.0129056
0.467897 0.0460755 0 0.00150015
0.467897 0.0514296 3.46945e-18 0.00200856
0.412065 0.227544 -2.31298e-18 0.0102959
0.467897 0.0569779 0 0.0025985
0.467897 0.0627277 -3.46945e-18 0.00326752
0.467897 0.0686863 3.46945e-18 0.00401099
0.467897 0.0748612 0 0.00482098
0.467897 0.0812603 0 0.00568552
0.467897 0.0878918 3.46945e-18 0.00658727
0.075776 0.470415 3.46945e-18 0.0201617
0.412065 0.239487 -2.31298e-18 0.0103768
0.467897 0.0947639 -3.46945e-18 0.00703898
0.467897 0.101886 3.46945e-18 0.00711365
0.350249 0.328483 0 0.0128503
0.467897 0.109266 0 0.00719569
0 0.48061 0 0.0140068
0.288433 0.385557 0 0.0167739
0.467897 0.116914 0 0.00728079
0.412065 0.251863 -2.31298e-18 0.0104474
0.219992 0.431051 0 0.0193186
0.467897 0.12484 0 0.00735836
0.151552 0.46022 0 0.0192235
0.467897 0.133054 3.46945e-18 0.00743035
0.467897 0.141566 3.46945e-18 0.00750376
0.412065 0.264688 -2.31298e-18 0.010505
0.350249 0.344091 -3.46945e-18 0.0127743
0.467897 0.150387 3.46945e-18 0.00757861
0.467897 0.154876 0 0.00809899
0.467897 0.159528 3.46945e-18 0.00765265
0.288433 0.403236 0 0.0162665
0.075776 0.491175 0 0.0202478
0.412065 0.27798 -2.31298e-18 0.0105478
0.467897 0.169001 0 0.00772567
0.467897 0.178818 3.46945e-18 0.00779745
0.219992 0.450382 0 0.0186535
6.73026e-17 0.501741 3.70071e-18 0.0140983
0.350249 0.360265 0 0.0126778
0.151552 0.48061 0 0.0189797
0.467897 0.188991 0 0.00786776
0.412065 0.291753 0 0.0105757
0.467897 0.199535 0 0.00793654
0.288433 0.421557 0 0.0157759
0.467897 0.21046 0 0.00800363
0.412065 0.306027 0 0.0105885
0.350249 0.377027 0 0.0125556
0.467897 0.221782 3.46945e-18 0.00806863
0.075776 0.51269 0 0.0202594
0.219993 0.470415 3.46945e-18 0.018093
0.467897 0.227544 0 0.00865452
0.412065 0.320819 -2.31298e-18 0.0105861
0.467897 0.233515 0 0.00813103
6.73026e-17 0.523639 3.70071e-18 0.0141414
0.523729 0 0 0
0.523729 0.00368111 0 2.07654e-06
0.523729 0.00749587 -2.31298e-18 1.09102e-05
0.523729 0.0114491 0 2.84945e-05
0.523729 0.0155459 0 5.47355e-05
0.523729 0.0197915 -2.31298e-18 9.97877e-05
0.151552 0.501741 0 0.0187601
0.523729 0.0241911 0 0.000185217
0.523729 0.0287506 0 0.000323239
0.523729 0.0334755 0 0.000520678
0.523729 0.038372 -3.08149e-33 0.000788618
0.523729 0.0434463 0 0.00113052
0.523729 0.0487048 0 0.00154795
0.523729 0.0541543 0 0.00204092
0.288433 0.440544 0 0.0153318
0.523729 0.0598016 0 0.00260769
0.350249 0.394397 -3.46945e-18 0.0124031
0.523729 0.0656539 0 0.0032445
0.467897 0.245675 0 0.0081904
0.523729 0.0717187 0 0.00394496
0.523729 0.0780037 0 0.00469899
0.523729 0.0845169 0 0.00545282
0.523729 0.0912666 0 0.00594905
0.412065 0.336148 0 0.0105689
0.523729 0.0982613 0 0.00611813
0.523729 0.10551 -2.31298e-18 0.00619565
0.467897 0.258275 -3.46945e-18 0.00824654
0.523729 0.113022 0 0.00627376
0.523729 0.120806 -3.08149e-33 0.00634714
0.219993 0.491176 0 0.0176019
0.523729 0.12484 0 0.00638089
0.523729 0.128874 -2.31298e-18 0.00641464
0.075776 0.534986 0 0.0202083
0.467897 0.271334 3.46945e-18 0.00829967
0.350249 0.412396 -3.46945e-18 0.0122251
0.523729 0.137234 0 0.00647928
0.412065 0.352034 -2.31298e-18 0.0105369
0.288433 0.46022 0 0.0149445
0.523729 0.145897 0 0.00654323
0.151552 0.523639 0 0.0185301
0.523729 0.154876 -3.08149e-33 0.00660631
0 0.546332 0 0.0141428
0.523729 0.159528 0 0.00663723
0.467897 0.284867 -3.46945e-18 0.00835018
0.523729 0.16418 -2.31298e-18 0.00666814
0.523729 0.173822 0 0.00672873
0.412065 0.368496 0 0.0104885
0.523729 0.183814 0 0.00678808
0.467897 0.29889 0 0.00839639
0.350249 0.431051 -3.46945e-18 0.0120351
0.219992 0.51269 0 0.017157
0.523729 0.194169 0 0.00684623
0.288433 0.48061 0 0.0146091
0.523729 0.2049 0 0.00690319
0.467897 0.313423 3.46945e-18 0.00843634
0.075776 0.558091 0 0.0201131
0.412065 0.385557 0 0.0104211
0.523729 0.21602 -3.08149e-33 0.00695889
0.151552 0.546332 0 0.0182954
0 0.569849 0 0.0141127
0.350249 0.450382 3.46945e-18 0.0118488
0.523729 0.227544 -3.08149e-33 0.00701315
0.467897 0.328483 0 0.00846851
0.523729 0.231525 1.54074e-33 0.00703069
0.574156 0.00184056 0 5.03817e-07
0.574156 0.00558849 0 3.62378e-06
0.574157 0.00947248 0 1.94245e-05
0.574156 0.0134975 -3.46945e-18 4.00109e-05
0.574156 0.0176687 -3.46945e-18 6.79944e-05
0.574156 0.0219913 0 0.000114132
0.574156 0.0264708 -3.46945e-18 0.000211397
0.574156 0.031113 0 0.000349808
0.574156 0.0359238 -3.46945e-18 0.000549676
0.574157 0.0409092 0 0.000816298
0.523729 0.239487 3.70071e-18 0.00706578
0.574156 0.0460755 -3.46945e-18 0.00115217
0.574156 0.0514295 0 0.00155801
0.412065 0.403236 0 0.0103346
0.574157 0.0569779 0 0.00203305
0.574156 0.0627277 0 0.00257436
0.574156 0.0686863 0 0.00317688
0.219992 0.534986 0 0.0167532
0.288433 0.501741 0 0.0143123
0.574156 0.0748612 3.46945e-18 0.00383272
0.574156 0.0812603 0 0.00452937
0.467897 0.344091 0 0.00849171
0.574156 0.0878917 3.46945e-18 0.00509868
0.523729 0.251863 0 0.00711666
0.574157 0.0947639 0 0.00518441
0.574156 0.101886 0 0.00526091
0.574156 0.109266 0 0.00533784
0.574156 0.116914 0 0.00540691
0.412065 0.416977 -6.16298e-33 0.0102587
0.350249 0.470415 0 0.0116785
0.523729 0.264688 0 0.00716581
0.075776 0.582034 0 0.0199878
0.574156 0.12484 0 0.00546968
0.574156 0.133054 3.46945e-18 0.00552828
0.412065 0.421557 -2.31298e-18 0.0102335
0.151552 0.569849 0 0.0180634
0.467897 0.360265 -3.46945e-18 0.00850519
0.574157 0.141566 -3.46945e-18 0.00558384
0.523729 0.27798 0 0.00721334
0.574156 0.150386 3.46945e-18 0.00563714
0 0.594219 0 0.0140585
0.574156 0.159528 -3.46945e-18 0.00568872
0.574156 0.16418 0 0.00589228
0.288433 0.523639 1.2326e-32 0.0140459
0.574157 0.169001 0 0.00573886
0.523729 0.291753 0 0.00725878
0.219993 0.558091 3.46945e-18 0.0163884
0.467897 0.377026 0 0.00850832
0.574156 0.178818 3.46945e-18 0.00578777
0.412065 0.440544 -2.31298e-18 0.0101261
0.350249 0.491175 0 0.0115305
0.574156 0.188992 3.46945e-18 0.00583566
0.523729 0.306027 -3.08149e-33 0.0073009
0.574157 0.199535 0 0.0058827
0.574157 0.21046 0 0.00592901
0.075776 0.606847 0 0.019842
0.467897 0.394397 0 0.00850046
0.151552 0.594219 0 0.0178392
0.523729 0.320819 0 0.00733849
0.574157 0.221782 -3.46945e-18 0.00597469
0.412065 0.46022 3.08149e-33 0.0100213
0.288433 0.546332 0 0.013807
0 0.619475 0 0.013986
0.574156 0.233515 3.46945e-18 0.0060198
0.350249 0.51269 3.46945e-18 0.011402
0.219992 0.582034 3.46945e-18 0.0160635
0.523729 0.336148 0 0.00737048
0.467897 0.412396 0 0.0084814
0.574156 0.245675 0 0.00606442
0.624584 0 0 0
0.624584 0.00368111 0 2.07005e-06
0.624584 0.00749587 0 1.22794e-05
0.624584 0.0114491 0 3.16321e-05
0.624584 0.0155459 0 5.53598e-05
0.624584 0.0197915 0 8.82908e-05
0.624584 0.0241911 -2.31298e-18 0.000148502
0.624584 0.0287506 0 0.000252215
0.624584 0.0334755 0 0.000404282
0.624584 0.038372 0 0.000612454
0.624584 0.0434463 -2.31298e-18 0.000883994
0.624584 0.0487048 0 0.00122078
0.624584 0.0541543 0 0.00162279
0.624584 0.0598016 0 0.0020881
0.624584 0.0656539 0 0.00261254
0.624584 0.0717187 0 0.0031894
0.624584 0.0780037 0 0.00380844
0.574157 0.258276 3.46945e-18 0.0061086
0.624584 0.0845169 0 0.00432785
0.523729 0.352034 0 0.00739607
0.624584 0.0912666 0 0.00457072
0.624584 0.0982613 0 0.00465097
0.412065 0.48061 3.08149e-33 0.00992605
0.624584 0.10551 0 0.00472596
0.624584 0.113022 -2.31298e-18 0.00479552
0.574156 0.271334 0 0.00615237
0.624584 0.120806 0 0.0048583
0.467897 0.431051 0 0.00845241
0.075776 0.632561 -3.46945e-18 0.0196825
0.624584 0.128874 0 0.004916
0.151552 0.619475 0 0.0176252
0.288433 0.569849 0 0.0135943
0.350249 0.534985 0 0.0112903
0.624584 0.137234 -2.31298e-18 0.00496997
0.523729 0.368496 0 0.0074147
0.574156 0.284866 -3.46945e-18 0.00619557
0.624584 0.145897 0 0.00502099
0.467897 0.440544 0 0.00877022
0.624584 0.154876 0 0.00506966
0.219992 0.606847 -3.46945e-18 0.0157758
0 0.645647 0 0.0138994
0.624584 0.16418 -3.08149e-33 0.00511642
0.574156 0.29889 -3.46945e-18 0.00623766
0.624584 0.173822 0 0.00516162
0.412065 0.501741 1.54074e-33 0.0098431
0.467897 0.450382 -3.46945e-18 0.00841685
0.523729 0.385557 0 0.00742588
0.624584 0.183814 0 0.00520552
0.624584 0.194169 0 0.00524837
0.574156 0.313423 0 0.00627791
0.624584 0.2049 0 0.00529037
0.350249 0.558091 3.46945e-18 0.0111933
0.288433 0.594219 0 0.0134069
0.624584 0.21602 0 0.00533166
0.523729 0.403236 0 0.00742924
0.574156 0.328483 -3.46945e-18 0.00631554
0.151552 0.645647 0 0.0174222
0.467897 0.470415 3.46945e-18 0.00837943
0.075776 0.659208 0 0.0195139
0.624584 0.227544 0 0.00537239
0.412065 0.523639 0 0.00977229
0.523729 0.41545 3.08149e-33 0.00742638
0.624584 0.239487 3.70071e-18 0.00541267
0.574156 0.344091 0 0.00634981
0.219992 0.632561 0 0.0155215
0.67013 0.00184055 0 4.25021e-07
0.67013 0.00558849 0 3.72693e-06
0.67013 0.00947248 0 2.22505e-05
0.67013 0.0134975 0 4.46092e-05
0.67013 0.0176687 -3.46945e-18 6.86598e-05
0.67013 0.0219913 0 0.000102717
0.67013 0.0264708 3.46945e-18 0.000167509
0.67013 0.0311131 0 0.000283622
0.67013 0.0359237 0 0.000439585
0.67013 0.0409092 -3.46945e-18 0.000652888
0.67013 0.0460755 0 0.000926883
0.67013 0.0514296 3.46945e-18 0.00126251
0.523729 0.421557 -2.31298e-18 0.00742495
0.67013 0.056978 0 0.00165872
0 0.67277 0 0.0138025
0.67013 0.0627277 0 0.00211262
0.624584 0.251863 0 0.00545258
0.67013 0.0686863 0 0.00261845
0.67013 0.0748612 3.46945e-18 0.0031681
0.67013 0.0812603 0 0.00374909
0.67013 0.0878917 0 0.00399363
0.67013 0.0947639 3.46945e-18 0.00407582
0.574156 0.360265 0 0.00638016
0.67013 0.101886 0 0.00415249
0.523729 0.431051 0 0.00741964
0.624584 0.264688 0 0.00549218
0.467897 0.491175 0 0.00834491
0.67013 0.109266 3.46945e-18 0.00422253
0.350249 0.582034 0 0.0111097
0.67013 0.116914 0 0.00428514
0.67013 0.12484 0 0.00434216
0.67013 0.133054 0 0.00439492
0.288433 0.619475 0 0.0132429
0.624584 0.27798 -3.08149e-33 0.00553143
0.412065 0.546332 1.54074e-33 0.00971294
0.523729 0.440544 -3.08149e-33 0.00741432
0.67013 0.141566 3.46945e-18 0.00444421
0.685312 0.0241911 -7.70372e-34 0.000134643
0.685312 0.0434463 -7.70372e-34 0.000774887
0.67013 0.150387 0 0.00449054
0.574156 0.377026 -3.46945e-18 0.00640621
0.67013 0.159528 0 0.00453444
0.624584 0.291753 0 0.00557011
0.151552 0.67277 0 0.0172306
0.075776 0.686823 0 0.01934
0.67013 0.169001 0 0.00457636
0.67013 0.178818 0 0.00461667
0.467897 0.51269 0 0.00831627
0.685312 0.113022 -7.70372e-34 0.00418346
0.219992 0.659208 0 0.0152973
0.624584 0.306027 0 0.00560782
0.67013 0.188991 0 0.00465569
0.574156 0.394397 3.46945e-18 0.00642768
0.523729 0.46022 0 0.00739985
0.685312 0.137234 -7.70372e-34 0.00434868
0.67013 0.199535 -3.46945e-18 0.00469367
0.350249 0.606847 0 0.0110386
0 0.700877 0 0.0136982
0.624584 0.320819 0 0.00564405
0.67013 0.21046 0 0.00473084
0.412065 0.569849 -2.31298e-18 0.00966429
0.67013 0.221782 -3.46945e-18 0.00476739
0.574157 0.412396 0 0.00644423
0.288433 0.645647 0 0.0131003
0.624584 0.336148 -3.08149e-33 0.00567826
0.67013 0.233515 3.46945e-18 0.00480348
0.467897 0.534986 0 0.00829487
0.523729 0.48061 0 0.00738476
0.624584 0.344091 0 0.00569411
0.67013 0.245675 0 0.00483926
0.715676 4.54095e-19 0 6.53117e-23
0.715676 0.00368111 0 2.08183e-06
0.715676 0.00749587 0 1.37087e-05
0.715676 0.0114491 0 3.53842e-05
0.715676 0.0155459 0 5.87681e-05
0.715676 0.0197915 0 8.55439e-05
0.715676 0.0241911 0 0.000127714
0.715676 0.0287506 0 0.000207545
0.715676 0.0334755 0 0.000331245
0.715676 0.038372 0 0.000498646
0.624584 0.352034 -2.31298e-18 0.00570996
0.715676 0.0434463 0 0.000720333
0.151552 0.700877 0 0.0170502
0.715676 0.0487048 0 0.000999939
0.715676 0.0541543 0 0.00133753
0.574156 0.43105 0 0.00645587
0.715676 0.0598016 0 0.00173117
0.67013 0.258275 0 0.00487482
0.715676 0.0656539 0 0.00217652
0.715676 0.0717187 0 0.00266655
0.075776 0.715441 0 0.0191637
0.715676 0.0780037 0 0.00318515
0.715676 0.0845169 0 0.00353497
0.219992 0.686824 0 0.0150998
0.715676 0.0912666 0 0.00366195
0.715676 0.0982613 0 0.00374069
0.67013 0.271334 -3.46945e-18 0.00491018
0.350249 0.632561 -3.46945e-18 0.0109795
0.412065 0.594219 3.08149e-33 0.00962567
0.715676 0.10551 0 0.00381287
0.715676 0.113022 0 0.00387743
0.624584 0.368496 0 0.00573879
0.523729 0.501741 0 0.00737203
0.715676 0.120806 0 0.00393557
0.715676 0.128874 0 0.00398878
0.67013 0.284867 0 0.0049453
0.467897 0.558091 3.46945e-18 0.00828111
0.715676 0.137234 0 0.00403804
0.574156 0.450382 0 0.00646328
0 0.730005 0 0.013589
0.715676 0.145897 0 0.004084
0.288433 0.67277 0 0.0129776
0.715676 0.154876 0 0.00412718
0.67013 0.29889 0 0.00498004
0.624584 0.385557 0 0.00576444
0.715676 0.16418 -9.25187e-19 0.00416805
0.715676 0.173822 0 0.00420703
0.715676 0.183814 0 0.00424444
0.67013 0.313423 0 0.00501415
0.523729 0.523639 0 0.00736375
0.715676 0.194169 0 0.00428059
0.574156 0.470415 3.46945e-18 0.00646794
0.624584 0.403236 0 0.00578666
0.743101 0.0241911 -7.70372e-34 0.000124506
0.412065 0.619475 3.08149e-33 0.00959666
0.715676 0.2049 0 0.00431572
0.151552 0.730005 0 0.016881
0.67013 0.328484 3.46945e-18 0.00504732
0.350249 0.659208 0 0.0109325
0.467897 0.582034 0 0.00827481
0.715676 0.21602 0 0.00435004
0.219992 0.715441 0 0.0149261
0.075776 0.745097 -3.46945e-18 0.0189874
0.715676 0.227544 0 0.00438374
0.67013 0.344091 0 0.00507921
0.624584 0.421557 0 0.00580529
0.743101 0.128874 -7.70372e-34 0.00378081
0.715676 0.239487 3.70071e-18 0.00441698
0.574156 0.491175 0 0.00647195
0.756814 0.00184055 0 3.65308e-07
0.523729 0.546332 0 0.00736111
0.756813 0.00558849 0 3.80953e-06
0.756813 0.00947248 0 2.49674e-05
0.756814 0.0134975 -3.46945e-18 4.949e-05
0.756814 0.0155459 0 6.10216e-05
0.756814 0.0176687 0 7.20738e-05
0.756814 0.0219913 0 9.8743e-05
0.756814 0.0264709 0 0.000142723
0.756814 0.031113 -3.46945e-18 0.000238365
0.756813 0.0359238 -3.46945e-18 0.000366842
0.288433 0.700877 0 0.0128731
0.756814 0.0409092 -3.46945e-18 0.00054065
0.756813 0.0460755 3.46945e-18 0.000768772
0.756813 0.0514296 0 0.0010523
0.715676 0.251863 0 0.00444987
0.756813 0.0569779 0 0.00139049
0.756814 0.0627277 -3.46945e-18 0.0017803
0.756814 0.0686863 -3.46945e-18 0.00221606
0 0.76019 0 0.0134773
0.756814 0.0748612 0 0.00268919
0.67013 0.360265 3.46945e-18 0.00510951
0.756814 0.0812603 -3.46945e-18 0.00316509
0.756814 0.0878917 -3.46945e-18 0.00326995
0.756814 0.0947639 -3.46945e-18 0.00335039
0.715676 0.264688 0 0.00448249
0.756813 0.101886 0 0.00342609
0.624584 0.440544 0 0.0058205
0.756813 0.109266 3.46945e-18 0.00349254
0.756813 0.116914 3.46945e-18 0.00355185
0.412065 0.645647 0 0.00957712
0.467897 0.606847 0 0.00827569
0.756814 0.120806 0 0.00362452
0.756813 0.12484 0 0.00360566
0.715676 0.27798 0 0.00451485
0.756814 0.133054 -3.46945e-18 0.00365506
0.67013 0.377026 -3.46945e-18 0.00513793
0.756814 0.137234 0 0.00372512
0.574156 0.51269 0 0.00647755
0.756813 0.141566 3.46945e-18 0.00370084
0.685312 0.352034 -7.70372e-34 0.00501603
0.743101 0.2049 -7.70372e-34 0.00410064
0.350249 0.686824 0 0.0108972
0.756814 0.150387 0 0.0037435
0.756814 0.154876 0 0.00381206
0.715676 0.291753 0 0.00454691
0.756814 0.159528 -3.46945e-18 0.00378352
0.523729 0.569849 0 0.00736459
0.72743 0.264688 0 0.00438734
0.756814 0.16418 0 0.00385166
0.151552 0.76019 0 0.0167229
0.756813 0.169001 3.46945e-18 0.00382137
0.624584 0.46022 0 0.00583298
0.219993 0.745097 0 0.0147737
0.67013 0.394396 0 0.00516425
0.756813 0.178818 -3.46945e-18 0.00385741
0.715676 0.306027 0 0.00457856
0.075776 0.775831 0 0.0188135
0.756813 0.188991 0 0.00389193
0.756814 0.199535 0 0.00392523
0.715676 0.320819 0 0.00460962
0.574156 0.534985 0 0.00648652
0.288433 0.730005 0 0.0127854
0.756813 0.21046 0 0.00395754
0.467897 0.632561 0 0.00828364
0.67013 0.412396 -3.46945e-18 0.00518829
0.624584 0.48061 -3.08149e-33 0.00584396
0.756814 0.221782 0 0.00398907
0.412065 0.67277 3.08149e-33 0.00956707
0.715676 0.336148 0 0.00463987
0 0.791472 0 0.0133653
0.756813 0.233516 3.46945e-18 0.00401998
0.523729 0.594219 0 0.00737429
0.624584 0.487654 1.54074e-33 0.00584766
0.756814 0.245675 3.46945e-18 0.00405042
0.350249 0.715441 3.46945e-18 0.0108734
0.67013 0.43105 0 0.00520993
0.715676 0.352034 -9.25187e-19 0.00466906
0.797951 9.08189e-19 -3.08149e-33 1.15114e-22
0.797951 0.00368111 2.31298e-18 2.08733e-06
0.797951 0.00749587 2.31298e-18 1.5077e-05
0.797951 0.0114491 2.31298e-18 3.92527e-05
0.797951 0.0141803 7.70372e-34 5.52675e-05
0.797951 0.0155459 0 6.3275e-05
0.797951 0.0169611 7.70372e-34 7.10402e-05
0.797951 0.0197915 2.31298e-18 8.65707e-05
0.797951 0.0219913 0 0.000102331
0.797951 0.0241911 3.08149e-33 0.000118092
0.797951 0.0264709 0 0.000147906
0.797951 0.0287506 -3.08149e-33 0.00017772
0.797951 0.0334755 2.31298e-18 0.000279225
0.797951 0.038372 2.31298e-18 0.000419775
0.797951 0.0434463 2.31298e-18 0.000603944
0.797951 0.0487048 0 0.000840157
0.756813 0.258275 -3.46945e-18 0.00408048
0.797951 0.0541543 2.31298e-18 0.00112909
0.797951 0.0598016 2.31298e-18 0.00146883
0.797951 0.0656539 2.31298e-18 0.00185508
0.574156 0.55809 0 0.00649999
0.624584 0.501741 0 0.00585506
0.797951 0.0717187 2.31298e-18 0.00228048
0.797951 0.0780037 -3.08149e-33 0.00270042
0.797951 0.0845169 2.31298e-18 0.00295123
0.797951 0.0912666 -3.08149e-33 0.00304451
0.797951 0.0982613 2.31298e-18 0.00312332
0.756813 0.271334 0 0.00411024
0.797951 0.10551 2.31298e-18 0.00319424
0.715676 0.368496 0 0.00469698
0.151552 0.791472 0 0.0165762
0.797951 0.113022 2.31298e-18 0.00325701
0.219992 0.775831 3.46945e-18 0.0146407
0.797951 0.118211 7.70372e-34 0.00329465
0.770526 0.239487 1.54074e-33 0.00397896
0.797951 0.120806 0 0.00331347
0.67013 0.450382 3.46945e-18 0.00522929
0.797951 0.128874 3.08149e-33 0.00336489
0.467897 0.659208 0 0.00829871
0.756813 0.284866 -3.46945e-18 0.00413972
0.743101 0.320819 -7.70372e-34 0.0043813
0.797951 0.137234 0 0.00341219
0.797951 0.141566 0 0.00343412
0.797951 0.145897 -9.25187e-19 0.00345605
0.523729 0.619475 0 0.0073902
0.075776 0.807681 0 0.0186443
0.797951 0.150387 0 0.00347649
0.797951 0.154876 0 0.00349693
0.715676 0.385557 0 0.00472342
0.412065 0.700877 3.08149e-33 0.00956649
0.288433 0.76019 0 0.0127133
0.756813 0.29889 0 0.00416891
0.797951 0.16418 0 0.00353528
0.624584 0.523639 0 0.0058679
0.797951 0.167394 7.70372e-34 0.00354735
0.797951 0.173822 2.31298e-18 0.00357149
0.574156 0.582034 0 0.00651854
0.67013 0.470415 0 0.00524687
0.797951 0.183814 2.31298e-18 0.00360591
0.756813 0.313423 -3.46945e-18 0.00419774
0.797951 0.194169 -9.25187e-19 0.00363882
0.715676 0.403236 0 0.00474822
0.151552 0.807681 0 0.0165088
0.797951 0.197746 -7.70372e-34 0.00364938
0.350249 0.745097 0 0.010861
0.797951 0.2049 3.08149e-33 0.00367048
0 0.823889 0 0.0132551
0.756813 0.328483 -3.46945e-18 0.0042261
0.797951 0.21046 0 0.0036858
0.797951 0.21602 -3.08149e-33 0.00370111
0.797951 0.223703 7.70372e-34 0.00372095
0.797951 0.227544 9.25187e-19 0.00373088
0.624584 0.546332 0 0.00588381
0.715676 0.421557 0 0.00477126
0.67013 0.491176 -3.46945e-18 0.0052636
0.797951 0.231525 7.70372e-34 0.00374057
0.467897 0.686824 -3.46945e-18 0.0083211
0.523729 0.645647 0 0.00741235
0.756813 0.344091 -3.46945e-18 0.00425386
0.822721 0.120806 7.70372e-34 0.0031641
0.797951 0.239487 -3.08149e-33 0.00375995
0.822721 0.137234 7.70372e-34 0.00326266
0.835106 0.00184056 0 3.19268e-07
0.835106 0.00558849 0 3.85535e-06
0.835106 0.00947248 0 2.76056e-05
0.835106 0.0134975 0 5.47402e-05
0.835107 0.0176687 0 7.654e-05
0.835106 0.0219913 -3.46945e-18 9.88075e-05