# pMean  POINT_DATA 63140
# x  y  z  pMean
0 0.1 0 0.170734
0 0.1 -0.0179898 0.17137
0 0.1 0.0179898 0.170099
0.0363518 0.1 0.0179898 0.170099
0.0363518 0.1 -0.0179898 0.17137
0 0.1 -0.0570102 0.172623
0 0.1 0.0570102 0.168598
0.0363518 0.1 0.0570102 0.168598
0.0363518 0.1 -0.0570102 0.172623
0 0.1 -0.075 0.173138
0 0.1 0.075 0.167851
0.075776 0.1 -0.0375 0.172064
0.075776 0.1 0.0375 0.169411
0 0.1 -0.0929898 0.173654
0 0.1 0.0929898 0.167104
0.0363518 0.1 -0.0929898 0.173654
0.0363518 0.1 0.0929898 0.167104
0 0.1 -0.13201 0.174661
0 0.1 0.13201 0.165368
0.075776 0.1 -0.1125 0.174219
0.075776 0.1 0.1125 0.166296
0.0363518 0.1 -0.13201 0.174661
0.0363518 0.1 0.13201 0.165368
0 0.1 -0.15 0.17507
0 0.1 0.15 0.164515
0.150379 0.1 -2.22623e-17 0.164518
0 0.1 -0.16799 0.175478
0 0.1 0.16799 0.163662
0.150379 0.1 -0.075 0.167083
0.150379 0.1 0.075 0.161454
0.0363518 0.1 -0.16799 0.175478
0.0363518 0.1 0.16799 0.163662
0.075776 0.1 -0.1875 0.175926
0.075776 0.1 0.1875 0.162739
0 0.1 -0.20701 0.176252
0 0.1 0.20701 0.1617
0.0363518 0.1 -0.20701 0.176252
0.0363518 0.1 0.20701 0.1617
0.150379 0.1 -0.15 0.169156
0.150379 0.1 0.15 0.157918
0.219993 0.1 -0.0375 0.160075
0.219993 0.1 0.0375 0.157098
0 0.1 -0.225 0.176555
0 0.1 0.225 0.160746
0 0.1 -0.24299 0.176856
0 0.1 0.24299 0.159791
0.0363518 0.1 0.24299 0.159791
0.0363518 0.1 -0.24299 0.176856
0.219993 0.1 -0.1125 0.162535
0.219993 0.1 0.1125 0.153599
0.150379 0.1 -0.225 0.170718
0.150379 0.1 0.225 0.153953
0.075776 0.1 -0.2625 0.177188
0.075776 0.1 0.2625 0.158758
0 0.1 -0.28201 0.177449
0 0.1 0.28201 0.157622
0.0363518 0.1 -0.28201 0.177449
0.0363518 0.1 0.28201 0.157622
0.287374 0.1 -2.89121e-19 0.161473
0.219992 0.1 0.1875 0.149648
0.219992 0.1 -0.1875 0.164494
0.287374 0.1 -0.075 0.164217
0.287374 0.1 0.075 0.158204
0 0.1 -0.3 0.177693
0 0.1 0.3 0.156577
0 0.1 0.31799 0.155533
0 0.1 -0.31799 0.177938
0.0363518 0.1 -0.31799 0.177938
0.0363518 0.1 0.31799 0.155533
0.287374 0.1 0.15 0.154445
0.287374 0.1 -0.15 0.16642
0.150379 0.1 -0.3 0.171798
0.150379 0.1 0.3 0.149587
0.219993 0.1 0.2625 0.145291
0.219993 0.1 -0.2625 0.165804
0.075776 0.1 -0.3375 0.178206
0.075776 0.1 0.3375 0.154402
0.350249 0.1 -0.0375 0.165763
0.350249 0.1 0.0375 0.162708
0 0.1 -0.35701 0.178339
0 0.1 0.35701 0.153178
0.0363518 0.1 -0.35701 0.178339
0.0363518 0.1 0.35701 0.153178
0.287374 0.1 -0.225 0.168049
0.287374 0.1 0.225 0.15023
0.350249 0.1 -0.1125 0.168244
0.350249 0.1 0.1125 0.159162
0 0.1 -0.375 0.178464
0 0.1 0.375 0.152051
0 0.1 -0.39299 0.178593
0 0.1 0.39299 0.150924
0.0363518 0.1 -0.39299 0.178593
0.0363518 0.1 0.39299 0.150924
0.350249 0.1 -0.1875 0.170159
0.350249 0.1 0.1875 0.155126
0.219992 0.1 -0.3375 0.166539
0.219992 0.1 0.3375 0.140539
0.150379 0.1 0.375 0.144869
0.150379 0.1 -0.375 0.172405
0.411108 0.1 4.33681e-19 0.168199
0.287374 0.1 -0.3 0.16909
0.287374 0.1 0.3 0.145601
0.411108 0.1 -0.075 0.17109
0.411108 0.1 0.075 0.164712
0.075776 0.1 -0.4125 0.178732
0.075776 0.1 0.4125 0.149705
0 0.1 0.43201 0.148401
0 0.1 -0.43201 0.178734
0.0363518 0.1 0.43201 0.148401
0.0363518 0.1 -0.43201 0.178734
0.411108 0.1 -0.15 0.173357
0.411108 0.1 0.15 0.160673
0.350249 0.1 -0.2625 0.171487
0.350249 0.1 0.2625 0.150617
0 0.1 -0.45 0.178739
0 0.1 0.45 0.147201
0.219992 0.1 0.4125 0.135491
0.219992 0.1 -0.4125 0.166703
0 0.1 -0.46799 0.178748
0 0.1 0.46799 0.146001
0.411108 0.1 -0.225 0.174985
0.411108 0.1 0.225 0.156118
0.467897 0.1 -0.0375 0.173671
0.467897 0.1 0.0375 0.170331
0.0363518 0.1 0.46799 0.146001
0.0363518 0.1 -0.46799 0.178748
0.287374 0.1 -0.375 0.169566
0.287374 0.1 0.375 0.140612
0.150379 0.1 0.45 0.139865
0.150379 0.1 -0.45 0.172466
0.467897 0.1 0.1125 0.16634
0.467897 0.1 -0.1125 0.17635
0.350249 0.1 -0.3375 0.172277
0.350249 0.1 0.3375 0.145723
0.075776 0.1 -0.4875 0.178755
0.075776 0.1 0.4875 0.144702
0.467897 0.1 0.1875 0.161774
0.467897 0.1 -0.1875 0.178337
0 0.1 -0.50701 0.178624
0 0.1 0.50701 0.143332
0.0363518 0.1 -0.50701 0.178624
0.0363518 0.1 0.50701 0.143332
0.411108 0.1 0.3 0.151103
0.411108 0.1 -0.3 0.175986
0.522865 0.1 1.41031e-17 0.176625
0 0.1 -0.525 0.178507
0 0.1 0.525 0.142072
0.522865 0.1 -0.075 0.179748
0.522865 0.1 0.075 0.172803
0.287374 0.1 0.45 0.135325
0.287374 0.1 -0.45 0.169455
0.219992 0.1 0.4875 0.130238
0.219992 0.1 -0.4875 0.166253
0.467897 0.1 -0.2625 0.179615
0.467897 0.1 0.2625 0.156692
0.350249 0.1 -0.4125 0.172488
0.350249 0.1 0.4125 0.140471
0 0.1 -0.54299 0.178392
0 0.1 0.54299 0.140812
0.522865 0.1 0.15 0.168325
0.522865 0.1 -0.15 0.182146
0.0363518 0.1 0.54299 0.140812
0.0363518 0.1 -0.54299 0.178392
0.150379 0.1 -0.525 0.172002
0.150379 0.1 0.525 0.134639
0.411108 0.1 -0.375 0.176369
0.411108 0.1 0.375 0.145688
0.075776 0.1 -0.5625 0.178267
0.075776 0.1 0.5625 0.139447
0.522865 0.1 -0.225 0.183796
0.522865 0.1 0.225 0.163251
0.574156 0.1 0.0375 0.179264
0.574157 0.1 -0.0375 0.182879
0.467897 0.1 -0.3375 0.18023
0.467897 0.1 0.3375 0.151142
0 0.1 -0.58201 0.178008
0 0.1 0.58201 0.13803
0.0363518 0.1 -0.58201 0.178008
0.0363518 0.1 0.58201 0.13803
0.574157 0.1 -0.1125 0.185731
0.574157 0.1 0.1125 0.174934
0.287374 0.1 -0.525 0.168801
0.287374 0.1 0.525 0.129806
0 0.1 -0.6 0.177773
0 0.1 0.6 0.136727
0.350249 0.1 0.4875 0.134887
0.350249 0.1 -0.4875 0.172116
0.522865 0.1 -0.3 0.18471
0.522865 0.1 0.3 0.157645
0.219992 0.1 -0.5625 0.165333
0.219992 0.1 0.5625 0.124854
0.574156 0.1 -0.1875 0.187798
0.574156 0.1 0.1875 0.169926
0.411108 0.1 0.45 0.13992
0.411108 0.1 -0.45 0.176123
0 0.1 -0.61799 0.177539
0 0.1 0.61799 0.135423
0.150379 0.1 -0.6 0.171064
0.150379 0.1 0.6 0.12924
0.0363518 0.1 -0.61799 0.177539
0.0363518 0.1 0.61799 0.135423
0.467897 0.1 -0.4125 0.180156
0.467897 0.1 0.4125 0.145205
0.623803 0.1 2.34188e-17 0.186397
0.623803 0.1 0.075 0.182224
0.623803 0.1 -0.075 0.18977
0.574156 0.1 0.2625 0.164304
0.574156 0.1 -0.2625 0.189063
0.623803 0.1 0.15 0.177302
0.623803 0.1 -0.15 0.192307
0.075776 0.1 0.6375 0.134012
0.075776 0.1 -0.6375 0.177287
0.522865 0.1 -0.375 0.184901
0.522865 0.1 0.375 0.151581
0 0.1 0.65701 0.132561
0 0.1 -0.65701 0.176913
0.0363518 0.1 0.65701 0.132561
0.0363518 0.1 -0.65701 0.176913
0.350249 0.1 0.5625 0.129049
0.350249 0.1 -0.5625 0.17124
0.623803 0.1 0.225 0.171688
0.623803 0.1 -0.225 0.193989
0.287374 0.1 -0.6 0.167669
0.287374 0.1 0.6 0.124113
0.574157 0.1 -0.3375 0.189564
0.574157 0.1 0.3375 0.158156
0.411108 0.1 0.525 0.133859
0.411108 0.1 -0.525 0.175295
0.67013 0.1 0.0375 0.189557
0.67013 0.1 -0.0375 0.193507
0.219992 0.1 -0.6375 0.163989
0.219993 0.1 0.6375 0.119338
0 0.1 -0.675 0.176572
0 0.1 0.675 0.131227
0.467897 0.1 -0.4875 0.179419
0.467897 0.1 0.4875 0.138936
0.67013 0.1 -0.1125 0.196573
0.67013 0.1 0.1125 0.184776
0.522865 0.1 0.45 0.145132
0.522865 0.1 -0.45 0.184375
0.150379 0.1 0.675 0.123702
0.150379 0.1 -0.675 0.169692
0.623803 0.1 0.3 0.165461
0.623803 0.1 -0.3 0.194827
0 0.1 -0.69299 0.176231
0 0.1 0.69299 0.129892
0.0363518 0.1 -0.69299 0.176231
0.0363518 0.1 0.69299 0.129892
0.67013 0.1 -0.1875 0.198731
0.67013 0.1 0.1875 0.179225
0.574156 0.1 0.4125 0.151559
0.574157 0.1 -0.4125 0.189294
0.714971 0.1 -2.8382e-17 0.197246
0.075776 0.1 -0.7125 0.175864
0.075776 0.1 0.7125 0.128447
0.714971 0.1 -0.075 0.200904
0.714971 0.1 0.075 0.192663
0.67013 0.1 0.2625 0.172972
0.67013 0.1 -0.2625 0.199969
0.411108 0.1 -0.6 0.173932
0.411108 0.1 0.6 0.127579
0.350249 0.1 0.6375 0.123037
0.350249 0.1 -0.6375 0.169854
0.623803 0.1 0.375 0.15871
0.623803 0.1 -0.375 0.19484
0.714971 0.1 -0.15 0.203595
0.714971 0.1 0.15 0.187217
0.467897 0.1 -0.5625 0.178108
0.467897 0.1 0.5625 0.13241
0 0.1 -0.73201 0.175388
0 0.1 0.73201 0.126977
0.0363518 0.1 0.73201 0.126977
0.0363518 0.1 -0.73201 0.175388
0.287374 0.1 -0.675 0.166093
0.287374 0.1 0.675 0.11829
0.522865 0.1 -0.525 0.183187
0.522865 0.1 0.525 0.138374
0.219993 0.1 -0.7125 0.162264
0.219992 0.1 0.7125 0.113705
0.714971 0.1 -0.225 0.205301
0.714971 0.1 0.225 0.18098
0 0.1 0.75 0.125625
0 0.1 -0.75 0.174952
0.67013 0.1 -0.3375 0.200321
0.67013 0.1 0.3375 0.166111
0.574156 0.1 -0.4875 0.188278
0.574157 0.1 0.4875 0.144593
0.756813 0.1 0.0375 0.200617
0.756814 0.1 -0.0375 0.204929
0.150379 0.1 0.746002 0.118465
0.150379 0.1 -0.75 0.167927
0.756813 0.1 -0.1125 0.208223
0.756813 0.1 0.1125 0.195343
0 0.1 0.76799 0.124272
0 0.1 -0.76799 0.174517
0.0363518 0.1 0.76799 0.124272
0.0363518 0.1 -0.76799 0.174517
0.623803 0.1 -0.45 0.194042
0.623803 0.1 0.45 0.151525
0.714971 0.1 -0.3 0.206039
0.714971 0.1 0.3 0.17404
0.756814 0.1 -0.1875 0.210463
0.756814 0.1 0.1875 0.189183
0.67013 0.1 -0.4125 0.199796
0.67013 0.1 0.4125 0.158739
0.411108 0.1 0.675 0.121158
0.411108 0.1 -0.675 0.172068
0.467897 0.1 0.6375 0.125697
0.467897 0.1 -0.6375 0.176249
0.075776 0.1 0.7875 0.122808
0.075776 0.1 -0.7875 0.174047
0.350249 0.1 -0.7125 0.168008
0.350249 0.1 0.7125 0.116926
0.522865 0.1 -0.6 0.181399
0.522865 0.1 0.6 0.131389
0.797314 0.1 -3.59473e-17 0.208751
0.287374 0.1 0.746002 0.112631
0.797314 0.1 -0.075 0.212727
0.797314 0.1 0.075 0.203713
0.756814 0.1 -0.2625 0.21165
0.756814 0.1 0.2625 0.182221
0.287374 0.1 -0.75 0.16411
0.574156 0.1 -0.5625 0.186603
0.574156 0.1 0.5625 0.137351
0 0.1 0.80701 0.121333
0 0.1 -0.80701 0.173476
0.714971 0.1 -0.375 0.205828
0.714971 0.1 0.375 0.166503
0.0363518 0.1 0.80701 0.121333
0.0363518 0.1 -0.80701 0.173476
0.797314 0.1 -0.15 0.215589
0.797314 0.1 0.15 0.197688
0.623803 0.1 -0.525 0.192492
0.623803 0.1 0.525 0.144002
0.219992 0.1 0.7875 0.108004
0.219992 0.1 -0.7875 0.16018
0.149792 0.1 0.80701 0.11377
0 0.1 0.825 0.119975
0 0.1 -0.825 0.172952
0.797314 0.1 -0.225 0.217321
0.797314 0.1 0.225 0.190762
0.756813 0.1 -0.3375 0.211828
0.756813 0.1 0.3375 0.174563
0.67013 0.1 0.4875 0.150963
0.67013 0.1 -0.4875 0.198426
0.835106 0.1 -0.0375 0.216913
0.835106 0.1 0.0375 0.212187
0.150379 0.1 -0.825 0.165812
0.835106 0.1 -0.1125 0.220477
0.835106 0.1 0.1125 0.206366
0 0.1 -0.84299 0.172429
0 0.1 0.84299 0.118617
0.0363518 0.1 -0.84299 0.172429
0.0363518 0.1 0.84299 0.118617
0.714971 0.1 -0.45 0.204694
0.714971 0.1 0.45 0.158479
0.411108 0.1 0.746002 0.114952
0.797314 0.1 -0.3 0.217954
0.797314 0.1 0.3 0.183039
0.467897 0.1 -0.7125 0.173903
0.467897 0.1 0.7125 0.118876
0.522865 0.1 0.675 0.124258
0.522865 0.1 -0.675 0.179062
0.411108 0.1 -0.75 0.16975
0.835106 0.1 -0.1875 0.222821
0.835107 0.1 0.1875 0.199537
0.286844 0.1 0.80701 0.107867
0.574156 0.1 0.6375 0.129921
0.574157 0.1 -0.6375 0.184313
0.350249 0.1 -0.7875 0.165739
0.350249 0.1 0.7875 0.110766
0.756813 0.1 -0.4125 0.210988
0.756814 0.1 0.4125 0.166331
0.623803 0.1 -0.6 0.190262
0.623803 0.1 0.6 0.13624
0.075776 0.1 0.8625 0.117146
0.075776 0.1 -0.8625 0.171864
0.871687 0.1 -3.2767e-18 0.220582
0.287374 0.1 -0.825 0.16177
0.871687 0.1 -0.075 0.224896
0.871687 0.1 0.075 0.215062
0.67013 0.1 -0.5625 0.196302
0.67013 0.1 0.5625 0.142886
0.835106 0.1 0.2625 0.191807
0.835106 0.1 -0.2625 0.223977
0.797314 0.1 -0.375 0.217502
0.797314 0.1 0.375 0.174644
0 0.1 -0.88201 0.17121
0 0.1 0.88201 0.115674
0.0363518 0.1 0.88201 0.115674
0.0363518 0.1 -0.88201 0.17121
0.871687 0.1 0.15 0.208417
0.871687 0.1 -0.15 0.227929
0.714971 0.1 0.525 0.150085
0.714971 0.1 -0.525 0.202705
0.219993 0.1 0.8625 0.102294
0.219992 0.1 -0.8625 0.157816
0 0.1 0.9 0.11432
0 0.1 -0.9 0.170608
0.756813 0.1 0.4875 0.157646
0.756814 0.1 -0.4875 0.209198
0.871687 0.1 0.225 0.200752
0.871687 0.1 -0.225 0.229669
0.835106 0.1 -0.3375 0.22399
0.835106 0.1 0.3375 0.183289
0.41063 0.1 0.80701 0.109714
0.90582 0.1 -0.0375 0.229021
0.905821 0.1 0.0375 0.223884
0.522865 0.1 0.746002 0.117366
0.150379 0.1 0.9 0.106714
0.90582 0.1 0.1125 0.2175
0.905821 0.1 -0.1125 0.23284
0.522865 0.1 -0.75 0.176237
0.574156 0.1 0.7125 0.122388
0.574156 0.1 -0.7125 0.181478
0.797314 0.1 -0.45 0.216
0.797314 0.1 0.45 0.165714
0.467897 0.1 -0.7875 0.171116
0.467897 0.1 0.7875 0.112021
0.150379 0.1 -0.903998 0.163484
0 0.1 0.91799 0.112965
0 0.1 -0.91799 0.170008
0.0363518 0.1 0.91799 0.112965
0.0363518 0.1 -0.91799 0.170008
0.623803 0.1 0.675 0.128335
0.623803 0.1 -0.675 0.187419
0.411108 0.1 -0.825 0.167029
0.871687 0.1 0.3 0.19219
0.871687 0.1 -0.3 0.230181
0.67013 0.1 -0.6375 0.193488
0.67013 0.1 0.6375 0.134617
0.90582 0.1 -0.1875 0.235239
0.90582 0.1 0.1875 0.209972
0.350249 0.1 0.8625 0.104606
0.350249 0.1 -0.8625 0.163106
0.835106 0.1 -0.4125 0.222839
0.835106 0.1 0.4125 0.174145
0.714971 0.1 -0.6 0.199948
0.714971 0.1 0.6 0.141438
0.93886 0.1 -1.15648e-17 0.232422
0.075776 0.1 0.9375 0.111499
0.075776 0.1 -0.9375 0.16936
0.93886 0.1 0.075 0.226371
0.93886 0.1 -0.075 0.237125
0.756813 0.1 0.5625 0.148637
0.756814 0.1 -0.5625 0.206544
0.905821 0.1 -0.2625 0.236304
0.905821 0.1 0.2625 0.201422
0.287374 0.1 0.9 0.100528
0.287374 0.1 -0.903998 0.159448
0.871687 0.1 0.375 0.182876
0.871687 0.1 -0.375 0.229463
0.93886 0.1 -0.15 0.240372
0.93886 0.1 0.15 0.219064
0.797314 0.1 0.525 0.156378
0.797314 0.1 -0.525 0.213529
0 0.1 0.95701 0.110045
0 0.1 -0.95701 0.168631
0.0363518 0.1 0.95701 0.110045
0.0363518 0.1 -0.95701 0.168631
0.522433 0.1 0.80701 0.111585
0.219992 0.1 0.9375 0.0966186
0.219992 0.1 -0.9375 0.155169
0.93886 0.1 0.225 0.210624
0.93886 0.1 -0.225 0.242143
0.90582 0.1 0.3375 0.191996
0.905821 0.1 -0.3375 0.236122
0.835106 0.1 -0.4875 0.220622
0.835107 0.1 0.4875 0.164512
0.969689 0.1 -0.0375 0.241073
0.969689 0.1 0.0375 0.235427
0.61613 0.1 0.75 0.12038
0.574156 0.1 -0.7875 0.178164
0.574156 0.1 0.7875 0.114832
0 0.1 0.975 0.108707
0 0.1 -0.975 0.167961
0.623803 0.1 -0.75 0.184041
0.969689 0.1 -0.1125 0.245272
0.969689 0.1 0.1125 0.228405
0.522865 0.1 -0.825 0.172983
0.67013 0.1 0.7125 0.126261
0.67013 0.1 -0.7125 0.190076
0.871687 0.1 -0.45 0.227549
0.871687 0.1 0.45 0.172972
0.467897 0.1 0.8625 0.105198
0.467897 0.1 -0.8625 0.167941
0.714971 0.1 -0.675 0.196511
0.714971 0.1 0.675 0.132654
0.93886 0.1 -0.3 0.242564
0.93886 0.1 0.3 0.201197
0.150379 0.1 0.975 0.101087
0.150379 0.1 -0.975 0.160675
0.969689 0.1 -0.1875 0.247835
0.969689 0.1 0.1875 0.220128
0.411108 0.1 0.9 0.101695
0.756813 0.1 0.6375 0.139435
0.756814 0.1 -0.6375 0.203125
0.990306 0.1 -2.19732e-17 0.241542
0 0.1 0.99299 0.107369
0 0.1 -0.99299 0.167293
0.411108 0.1 -0.903998 0.164321
0.990306 0.1 -0.075 0.246584
0.990306 0.1 0.075 0.235035
0.0363518 0.1 0.99299 0.107369
0.0363518 0.1 -0.99299 0.167293
0.90582 0.1 -0.4125 0.234577
0.905821 0.1 0.4125 0.181851
0.797314 0.1 -0.6 0.210188
0.797314 0.1 0.6 0.146782
0.350249 0.1 0.9375 0.0984974
0.350249 0.1 -0.9375 0.160154
0.990306 0.1 0.15 0.227159
0.990306 0.1 -0.15 0.250008
0.969689 0.1 -0.2625 0.248889
0.969689 0.1 0.2625 0.210742
0.835106 0.1 -0.5625 0.217413
0.835106 0.1 0.5625 0.154523
0.93886 0.1 -0.375 0.241611
0.93886 0.1 0.375 0.190944
0.075776 0.1 1.0125 0.105921
0.075776 0.1 -1.0125 0.16657
0.990306 0.1 -0.225 0.251778
0.990306 0.1 0.225 0.218054
0.287374 0.1 0.975 0.0946717
0.287374 0.1 -0.975 0.156186
0.871687 0.1 -0.525 0.224537
0.871687 0.1 0.525 0.162633
1.02149 0.1 -0.0369628 0.251309
1.02149 0.1 0.0369628 0.245304
0.969689 0.1 -0.3375 0.248637
0.969689 0.1 0.3375 0.200415
1.02149 0.1 -0.110888 0.255759
1.02149 0.1 0.110888 0.237789
0.90582 0.1 0.4875 0.171186
0.90582 0.1 -0.4875 0.231845
0.623803 0.1 0.819003 0.113801
0 0.1 1.03201 0.104495
0 0.1 -1.03201 0.165779
0.0363518 0.1 1.03201 0.104495
0.0363518 0.1 -1.03201 0.165779
0.67013 0.1 -0.7875 0.186147
0.67013 0.1 0.7875 0.117915
0.623803 0.1 -0.825 0.180205
0.990306 0.1 -0.3 0.252135
0.990306 0.1 0.3 0.207883
0.219992 0.1 -1.0125 0.152274
0.219993 0.1 1.0125 0.0910122
0.574156 0.1 0.8625 0.107334
0.574157 0.1 -0.8625 0.174446
0.714971 0.1 -0.75 0.192491
0.714971 0.1 0.75 0.123841
1.02149 0.1 0.184814 0.228901
1.02149 0.1 -0.184814 0.258332
0.756814 0.1 -0.7125 0.199044
0.756814 0.1 0.7125 0.130157
0.522865 0.1 0.9 0.102759
0.93886 0.1 -0.45 0.239301
0.93886 0.1 0.45 0.180053
1.04168 0.1 0 0.252544
1.04168 0.1 -0.0729162 0.257886
1.04168 0.1 0.0729162 0.245687
0.522865 0.1 -0.903998 0.169801
0.797314 0.1 -0.675 0.206095
0.797314 0.1 0.675 0.137069
0.467897 0.1 0.9375 0.0984674
0.467897 0.1 -0.9375 0.164438
0 0.1 1.05 0.103183
0 0.1 -1.05 0.165053
0.835106 0.1 -0.6375 0.213351
0.835106 0.1 0.6375 0.144371
1.04168 0.1 -0.145832 0.261518
1.04168 0.1 0.145832 0.237393
1.02149 0.1 -0.25874 0.259254
1.02149 0.1 0.25874 0.218801
0.969689 0.1 -0.4125 0.246809
0.969689 0.1 0.4125 0.189326
0.411108 0.1 0.975 0.0953281
0.411108 0.1 -0.975 0.160588
0.871687 0.1 -0.6 0.220546
0.871687 0.1 0.6 0.152019
1.0579 0.1 -0.0360525 0.259017
1.0579 0.1 0.0360525 0.25286
0.990306 0.1 -0.375 0.250997
0.990306 0.1 0.375 0.196827
0.150379 0.1 1.05 0.095546
0.150379 0.1 -1.05 0.157719
1.0579 0.1 0.108157 0.245211
1.0579 0.1 -0.108157 0.263659
1.04168 0.1 -0.218749 0.263327
1.04168 0.1 0.218749 0.227811
0.90582 0.1 -0.5625 0.227971
0.90582 0.1 0.5625 0.160144
0 0.1 -1.06799 0.164327
0 0.1 1.06799 0.101871
0.0363518 0.1 -1.06799 0.164327
0.0363518 0.1 1.06799 0.101871
0.350249 0.1 1.0125 0.092483
0.350249 0.1 -1.0125 0.156932
1.0579 0.1 -0.180262 0.266437
1.0579 0.1 0.180262 0.236206
1.02149 0.1 -0.332665 0.258945
1.02149 0.1 0.332665 0.207668
0.93886 0.1 -0.525 0.235748
0.93886 0.1 0.525 0.168699
1.08012 0.1 5.49329e-18 0.260633
1.04168 0.1 -0.291665 0.263694
1.04168 0.1 0.291665 0.217109
1.08012 0.1 0.0709941 0.253595
1.08012 0.1 -0.0709941 0.266177
0.969689 0.1 -0.4875 0.243679
0.96969 0.1 0.4875 0.177683
1.0579 0.1 0.252367 0.226003
1.0579 0.1 -0.252367 0.267441
0.990306 0.1 -0.45 0.248341
0.990306 0.1 0.45 0.185089
0.287374 0.1 -1.05 0.153015
0.287374 0.1 1.05 0.0889141
0.714971 0.1 0.821002 0.115729
1.08012 0.1 -0.141988 0.270034
1.08012 0.1 0.141988 0.245126
0.075776 0.1 1.0875 0.10045
0.075776 0.1 -1.0875 0.163542
0.714971 0.1 -0.825 0.187985
0.756813 0.1 -0.7875 0.194412
0.756814 0.1 0.7875 0.12092
0.67013 0.1 -0.8625 0.181786
0.67013 0.1 0.8625 0.109662
0.797314 0.1 -0.75 0.201368
0.797314 0.1 0.75 0.127361
0.623803 0.1 0.9 0.104655
0.835106 0.1 -0.7125 0.208561
0.835106 0.1 0.7125 0.134178
0.623803 0.1 -0.903998 0.176493
0.574156 0.1 0.9375 0.0999681
0.574156 0.1 -0.9375 0.170392
1.02149 0.1 -0.406591 0.256803
1.02149 0.1 0.406591 0.195703
1.08012 0.1 -0.212982 0.272007
1.08012 0.1 0.212982 0.23538
1.10076 0.1 -0.0349809 0.268351
1.10076 0.1 0.0349809 0.26193
0.871687 0.1 -0.675 0.215732
0.871687 0.1 0.675 0.1413
1.04168 0.1 -0.364581 0.262549
1.04168 0.1 0.364581 0.205477
1.10076 0.1 -0.104943 0.273283
1.10076 0.1 0.104943 0.254
0.522865 0.1 0.975 0.0957873
0.522865 0.1 -0.975 0.165445
1.0579 0.1 -0.324472 0.26724
1.0579 0.1 0.324472 0.214775
0 0.1 -1.10701 0.1627
0 0.1 1.10701 0.0990618
0.0363518 0.1 1.10701 0.0990618
0.0363518 0.1 -1.10701 0.1627
0.90582 0.1 0.6375 0.148902
0.905821 0.1 -0.6375 0.22317
0.219992 0.1 1.0875 0.0855027
0.219992 0.1 -1.0875 0.149164
0.93886 0.1 0.6 0.157079
0.93886 0.1 -0.6 0.231088
1.10076 0.1 -0.174905 0.276342
1.10076 0.1 0.174905 0.244709
0.467897 0.1 1.0125 0.0918784
0.467897 0.1 -1.0125 0.160661
1.08012 0.1 -0.283976 0.272476
1.08012 0.1 0.283976 0.224521
1.11928 0.1 3.93204e-18 0.26894
0.990306 0.1 -0.525 0.244303
0.990306 0.1 0.525 0.17287
0.96969 0.1 -0.5625 0.239217
0.969689 0.1 0.5625 0.16564
1.11928 0.1 -0.0690357 0.274731
1.11928 0.1 0.0690357 0.261642
0 0.1 1.125 0.097784
0 0.1 -1.125 0.161925
0.411108 0.1 -1.05 0.156973
0.411108 0.1 1.05 0.0891008
1.10076 0.1 0.244866 0.234219
1.10076 0.1 -0.244866 0.277438
1.11928 0.1 -0.138072 0.278842
1.11928 0.1 0.138072 0.252904
1.02149 0.1 0.480517 0.183129
1.02149 0.1 -0.480517 0.253212
1.0579 0.1 -0.396577 0.265257
1.0579 0.1 0.396577 0.202719
1.04168 0.1 -0.437497 0.25975
1.04168 0.1 0.437497 0.19312
0.150379 0.1 1.125 0.0901236
0.150379 0.1 -1.125 0.154553
0.714971 0.1 0.88201 0.109068
1.08012 0.1 0.354971 0.21273
1.08012 0.1 -0.354971 0.271459
1.11928 0.1 -0.207107 0.281009
1.11928 0.1 0.207107 0.242883
0.350249 0.1 -1.0875 0.153488
0.350249 0.1 1.0875 0.0865999
0 0.1 1.14299 0.096506
0 0.1 -1.14299 0.161152
0.0363518 0.1 1.14299 0.096506
0.0363518 0.1 -1.14299 0.161152
1.14316 0.1 -0.0339211 0.277667
1.14316 0.1 0.0339211 0.270968
0.797314 0.1 0.821002 0.118186
1.10076 0.1 -0.314829 0.277393
1.10076 0.1 0.314829 0.222694
0.797314 0.1 -0.825 0.196128
0.756814 0.1 -0.8625 0.189333
0.756814 0.1 0.8625 0.111822
1.14316 0.1 -0.101763 0.282834
1.14316 0.1 0.101763 0.262757
0.835106 0.1 -0.7875 0.203179
0.835106 0.1 0.7875 0.124083
0.871687 0.1 -0.75 0.210239
0.871687 0.1 0.75 0.130616
0.67013 0.1 0.9375 0.101586
0.67013 0.1 -0.9375 0.177084
0.90582 0.1 -0.7125 0.217589
0.905821 0.1 0.7125 0.137641
0.714971 0.1 -0.903998 0.18366
1.11928 0.1 0.276143 0.23174
1.11928 0.1 -0.276143 0.281588
1.14316 0.1 0.169605 0.253178
1.14316 0.1 -0.169605 0.286158
0.93886 0.1 -0.675 0.225526
0.93886 0.1 0.675 0.145401
1.15704 0.1 0 0.277171
1.0579 0.1 0.468682 0.190043
1.0579 0.1 -0.468682 0.261803
0.623803 0.1 0.975 0.0970358
0.623803 0.1 -0.975 0.171472
0.990306 0.1 0.6 0.160394
0.990306 0.1 -0.6 0.239054
1.15704 0.1 -0.0671479 0.283227
1.15704 0.1 0.0671479 0.269597
1.04168 0.1 -0.510414 0.255466
1.04168 0.1 0.510414 0.180263
0.969689 0.1 -0.6375 0.233728
0.969689 0.1 0.6375 0.15351
1.08012 0.1 0.425965 0.200209
1.08012 0.1 -0.425965 0.268787
0.287374 0.1 -1.125 0.149642
0.287374 0.1 1.125 0.0832858
1.02149 0.1 -0.554443 0.248135
1.02149 0.1 0.554443 0.170178
0.574156 0.1 1.0125 0.0927894
0.574156 0.1 -1.0125 0.166067
1.15704 0.1 -0.134296 0.287619
1.15704 0.1 0.134296 0.260579
0.075776 0.1 1.1625 0.0951226
0.075776 0.1 -1.1625 0.160314
1.10076 0.1 -0.384791 0.275527
1.10076 0.1 0.384791 0.21033
1.14316 0.1 -0.237448 0.287468
1.14316 0.1 0.237448 0.242392
1.11928 0.1 -0.345179 0.280685
1.11928 0.1 0.345179 0.219656
0.522865 0.1 1.05 0.0890074
0.522865 0.1 -1.05 0.161284
1.15704 0.1 -0.201444 0.290025
1.15704 0.1 0.201444 0.250277
1.1744 0.1 -0.0331401 0.284376
1.1744 0.1 0.0331401 0.27744
1.1744 0.1 -0.0994202 0.28979
1.1744 0.1 0.0994202 0.268984
0 0.1 1.18201 0.093779
0 0.1 -1.18201 0.15943
0.0363518 0.1 1.18201 0.093779
0.0363518 0.1 -1.18201 0.15943
0.219992 0.1 1.1625 0.0801231
0.219993 0.1 -1.1625 0.14587
1.14316 0.1 0.30529 0.230563
1.14316 0.1 -0.30529 0.28749
0.467897 0.1 1.0875 0.0854784
0.467897 0.1 -1.0875 0.156665
1.1744 0.1 -0.1657 0.293414
1.1744 0.1 0.1657 0.259164
1.15704 0.1 -0.268592 0.290753
1.15704 0.1 0.268592 0.238851
1.0579 0.1 0.540787 0.176971
1.0579 0.1 -0.540787 0.256839
0.796996 0.1 0.88201 0.110604
1.08012 0.1 -0.496959 0.264596
1.08012 0.1 0.496959 0.187171
1.10076 0.1 0.454752 0.197328
1.10076 0.1 -0.454752 0.272138
1.11928 0.1 -0.414214 0.278093
1.11928 0.1 0.414214 0.206827
1.04168 0.1 -0.58333 0.249852
1.04168 0.1 0.58333 0.167117
1.1744 0.1 -0.231981 0.294854
1.1744 0.1 0.231981 0.248143
0.871687 0.1 0.821002 0.12056
0.411108 0.1 1.125 0.0830505
0.411108 0.1 -1.125 0.153158
1.19808 0.1 1.73472e-17 0.286248
0.990306 0.1 0.675 0.147883
0.990306 0.1 -0.675 0.232845
1.02149 0.1 0.628368 0.157037
1.02149 0.1 -0.628368 0.241988
1.19808 0.1 -0.0650961 0.292617
1.19808 0.1 0.0650961 0.278353
0 0.1 1.2 0.0925428
0 0.1 -1.2 0.158617
0.871687 0.1 -0.825 0.204212
0.905821 0.1 -0.7875 0.211393
0.90582 0.1 0.7875 0.126482
0.835106 0.1 -0.8625 0.197335
0.835106 0.1 0.8625 0.114171
0.93886 0.1 -0.75 0.219235
0.93886 0.1 0.75 0.133814
1.14316 0.1 -0.373132 0.285776
1.14316 0.1 0.373132 0.217883
0.969689 0.1 0.7125 0.14145
0.969689 0.1 -0.7125 0.227372
1.15704 0.1 -0.33574 0.290005
1.15704 0.1 0.33574 0.226479
0.756813 0.1 0.9375 0.10297
0.756814 0.1 -0.9375 0.183915
1.19808 0.1 0.130192 0.269018
1.19808 0.1 -0.130192 0.297355
0.797314 0.1 -0.903998 0.191139
0.714971 0.1 0.975 0.0981925
0.714971 0.1 -0.975 0.177894
0.150379 0.1 1.2 0.0848489
0.150379 0.1 -1.2 0.151214
1.20938 0.1 -0.0322656 0.292114
1.20938 0.1 0.0322656 0.284898
1.1744 0.1 -0.298261 0.295035
1.1744 0.1 0.298261 0.236079
1.20938 0.1 -0.0967968 0.297794
1.20938 0.1 0.0967968 0.27616
1.19808 0.1 -0.195288 0.300093
1.19808 0.1 0.195288 0.258406
0.350249 0.1 1.1625 0.0808747
0.350249 0.1 -1.1625 0.14986
0.67013 0.1 1.0125 0.0937536
0.67013 0.1 -1.0125 0.172114
0 0.1 1.21799 0.0913063
0 0.1 -1.21799 0.157804
0.0363518 0.1 -1.21799 0.157804
0.0363518 0.1 1.21799 0.0913063
1.11928 0.1 -0.48325 0.273925
1.11928 0.1 0.48325 0.193467
1.10076 0.1 -0.524714 0.267168
1.10076 0.1 0.524714 0.183914
1.20938 0.1 0.161328 0.266068
1.20938 0.1 -0.161328 0.301769
1.08012 0.1 0.567953 0.173827
1.08012 0.1 -0.567953 0.259014
0.623803 0.1 1.05 0.0896643
0.623803 0.1 -1.05 0.166721
1.0579 0.1 -0.612892 0.250683
1.0579 0.1 0.612892 0.163701
1.15704 0.1 -0.402888 0.287543
1.15704 0.1 0.402888 0.213355
1.14316 0.1 0.440974 0.204552
1.14316 0.1 -0.440974 0.28243
1.19808 0.1 -0.260384 0.301042
1.19808 0.1 0.260384 0.246675
1.2267 0.1 3.57064e-18 0.29218
1.2267 0.1 -0.0636649 0.298773
1.2267 0.1 0.0636649 0.284053
1.1744 0.1 -0.364541 0.293511
1.1744 0.1 0.364541 0.223165
0.574156 0.1 1.0875 0.0858589
0.574156 0.1 -1.0875 0.161542
1.20938 0.1 0.225859 0.25478
1.20938 0.1 -0.225859 0.303449
1.04168 0.1 -0.656246 0.243214
1.04168 0.1 0.656246 0.153881
1.2267 0.1 -0.12733 0.303762
1.2267 0.1 0.12733 0.274493
0.287374 0.1 1.2 0.0778138
0.287374 0.1 -1.2 0.146105
1.02149 0.1 -0.702294 0.234936
1.02149 0.1 0.702294 0.143895
0.075776 0.1 -1.2375 0.156925
0.075776 0.1 1.2375 0.0899679
0.871399 0.1 0.88201 0.112272
0.522865 0.1 1.125 0.0824648
0.522865 0.1 -1.125 0.156939
1.2267 0.1 -0.190994 0.306762
1.2267 0.1 0.190994 0.263662
1.19808 0.1 -0.32548 0.300518
1.19808 0.1 0.32548 0.234
0.990306 0.1 -0.75 0.225867
0.990306 0.1 0.75 0.135474
1.24274 0.1 -0.0314313 0.299347
1.24274 0.1 0.0314313 0.291841
1.20938 0.1 -0.29039 0.303788
1.20938 0.1 0.29039 0.242453
1.24274 0.1 -0.0942942 0.305294
1.24274 0.1 0.0942942 0.28282
0.93886 0.1 0.821002 0.122928
1.11928 0.1 -0.552285 0.268302
1.11928 0.1 0.552285 0.179785
1.15704 0.1 -0.470036 0.283448
1.15704 0.1 0.470036 0.19969
0.969689 0.1 -0.7875 0.220358
0.96969 0.1 0.7875 0.129601
0.93886 0.1 -0.825 0.212388
0.90582 0.1 0.8625 0.115588
0.905821 0.1 -0.8625 0.204729
1.1744 0.1 -0.430821 0.290272
1.1744 0.1 0.430821 0.209595
1.10076 0.1 -0.594676 0.26094
1.10076 0.1 0.594676 0.170281
1.14316 0.1 -0.508816 0.277494
1.14316 0.1 0.508816 0.190791
1.24274 0.1 -0.157157 0.30962
1.24274 0.1 0.157157 0.272455
1.2267 0.1 -0.254659 0.307895
1.2267 0.1 0.254659 0.251717
0.467897 0.1 1.1625 0.0793053
0.467897 0.1 -1.1625 0.152498
1.08012 0.1 0.638947 0.160386
1.08012 0.1 -0.638947 0.252327
1.25511 0.1 -5.78241e-19 0.298088
0.835106 0.1 -0.9375 0.191151
0.835106 0.1 0.9375 0.104542
0.871687 0.1 -0.903998 0.198505
1.25511 0.1 0.0622446 0.289734
1.25511 0.1 -0.0622446 0.304905
0.219992 0.1 1.2375 0.0748894
0.219992 0.1 -1.2375 0.142426
0 0.1 -1.25701 0.156007
0 0.1 1.25701 0.0886726
0.0363518 0.1 -1.25701 0.156007
0.0363518 0.1 1.25701 0.0886726
0.797314 0.1 0.975 0.0993186
0.797314 0.1 -0.975 0.184562
1.19808 0.1 -0.390576 0.298278
1.19808 0.1 0.390576 0.220571
1.0579 0.1 -0.684997 0.243584
1.0579 0.1 0.684997 0.150454
1.20938 0.1 -0.354921 0.302519
1.20938 0.1 0.354921 0.229277
1.25511 0.1 0.124489 0.279953
1.25511 0.1 -0.124489 0.310141
1.24274 0.1 -0.220019 0.311616
1.24274 0.1 0.220019 0.260902
0.756813 0.1 1.0125 0.0944272
0.756814 0.1 -1.0125 0.17825
1.2267 0.1 -0.318324 0.307548
1.2267 0.1 0.318324 0.238829
0.411108 0.1 1.2 0.077211
0.411108 0.1 -1.2 0.14919
1.25511 0.1 -0.186734 0.313411
1.25511 0.1 0.186734 0.268908
0.714971 0.1 1.05 0.0901739
0.714971 0.1 -1.05 0.172483
1.04168 0.1 -0.729162 0.235754
1.04168 0.1 0.729162 0.140728
1.24274 0.1 0.282882 0.248316
1.24274 0.1 -0.282882 0.312122
0 0.1 1.275 0.087481
0 0.1 -1.275 0.155162
1.1744 0.1 0.497102 0.195593
1.1744 0.1 -0.497102 0.285426
1.15704 0.1 -0.537184 0.277825
1.15704 0.1 0.537184 0.185694
1.2756 0.1 -0.03061 0.306373
1.2756 0.1 0.03061 0.29856
0.67013 0.1 1.0875 0.086232
0.67013 0.1 -1.0875 0.166953
1.2756 0.1 -0.09183 0.312616
1.2756 0.1 0.09183 0.289252
1.25511 0.1 -0.248978 0.31475
1.25511 0.1 0.248978 0.256753
1.20938 0.1 0.419453 0.215445
1.20938 0.1 -0.419453 0.299433
1.11928 0.1 -0.621322 0.261502
1.11928 0.1 0.621322 0.165984
1.14316 0.1 -0.576659 0.271174
1.14316 0.1 0.576659 0.176796
1.19808 0.1 -0.455673 0.294336
1.19808 0.1 0.455673 0.206597
1.02149 0.1 0.776219 0.130847
1.02149 0.1 -0.776219 0.227206
0.150379 0.1 1.275 0.0797495
0.150379 0.1 -1.275 0.147734
1.2756 0.1 -0.15305 0.317265
1.2756 0.1 0.15305 0.278611
1.2267 0.1 -0.381989 0.305491
1.2267 0.1 0.381989 0.225191
1.10076 0.1 -0.664638 0.25369
1.10076 0.1 0.664638 0.156644
0.350249 0.1 1.2375 0.0753394
0.350249 0.1 -1.2375 0.146092
0.623803 0.1 1.125 0.0825875
0.623803 0.1 -1.125 0.161804
0.9386 0.1 0.88201 0.11398
0.990306 0.1 0.825 0.123727
0.990306 0.1 -0.825 0.218323
1.24274 0.1 -0.345745 0.311133
1.24274 0.1 0.345745 0.234881
1.2906 0.1 0 0.3054
1.07933 0.1 0.709941 0.147053
1.2906 0.1 -0.0604698 0.312574
1.2906 0.1 0.0604698 0.296692
1.08012 0.1 -0.709941 0.24476
0 0.1 1.29299 0.086289
0 0.1 -1.29299 0.154318
1.25511 0.1 0.311223 0.243656
1.25511 0.1 -0.311223 0.314583
1.2756 0.1 -0.214269 0.319701
1.2756 0.1 0.214269 0.266789
0.0363518 0.1 1.29299 0.086289
0.0363518 0.1 -1.29299 0.154318
1.2906 0.1 -0.12094 0.318189
1.2906 0.1 0.12094 0.286576
0.574156 0.1 1.1625 0.0792116
0.574157 0.1 -1.1625 0.156868
0.969689 0.1 0.8625 0.117989
0.969689 0.1 -0.8625 0.212866
1.0579 0.1 0.757102 0.137415
1.0579 0.1 -0.757102 0.235746
1.1744 0.1 -0.563382 0.27908
1.1744 0.1 0.563382 0.181353
1.20938 0.1 0.483984 0.201174
1.20938 0.1 -0.483984 0.294725
1.2906 0.1 -0.181409 0.321918
1.2906 0.1 0.181409 0.275207
0.93886 0.1 -0.903998 0.205951
0.90582 0.1 0.9375 0.105137
0.90582 0.1 -0.9375 0.197747
1.2756 0.1 0.275489 0.25394
1.2756 0.1 -0.275489 0.32042
1.2267 0.1 -0.445653 0.301691
1.2267 0.1 0.445653 0.211006
1.15704 0.1 -0.604332 0.270941
1.15704 0.1 0.604332 0.171566
1.19808 0.1 -0.520769 0.288793
1.19808 0.1 0.520769 0.192287
1.30646 0.1 0.0298385 0.304563
1.30646 0.1 -0.0298385 0.312675
0.287374 0.1 -1.275 0.142438
0.287374 0.1 1.275 0.0725288
0.871687 0.1 0.975 0.100036
0.871687 0.1 -0.975 0.191095
1.24274 0.1 0.408607 0.220796
1.24274 0.1 -0.408607 0.308242