# pMean  POINT_DATA 91129
# x  y  z  pMean
0 0 0 0.182879
0 0.00368111 0 0.182618
0 0.00749587 0 0.182058
0 0.0114491 0 0.181514
0 0.0155459 0 0.181025
0 0.0197915 0 0.180504
0 0.0241911 0 0.179918
0 0.0287506 0 0.179272
0 0.0334755 0 0.178578
0 0.038372 0 0.177855
0 0.0434463 0 0.177113
0 0.0487048 0 0.17636
0 0.0541543 0 0.175602
0 0.0598016 0 0.174846
0 0.0656539 0 0.174107
0 0.0717187 0 0.17341
0.075776 0.00184055 0 0.182879
0.075776 0.00558849 0 0.182357
0.075776 0.00947248 -3.46945e-18 0.181758
0.075776 0.0134975 -3.46945e-18 0.181269
0.075776 0.0176687 3.46945e-18 0.180781
0 0.0780037 0 0.172761
0.075776 0.0219913 3.46945e-18 0.180228
0.075776 0.0264709 3.46945e-18 0.179609
0.075776 0.031113 -3.46945e-18 0.178934
0.075776 0.0359237 -3.46945e-18 0.178222
0 0.0845169 0 0.172138
0.075776 0.0409092 0 0.177488
0.075776 0.0460755 -3.46945e-18 0.176739
0 0.0912666 0 0.171516
0.075776 0.0514296 -3.46945e-18 0.175982
0.075776 0.0569779 0 0.175223
0 0.0982613 0 0.170887
0.075776 0.0627278 0 0.174469
0.075776 0.0686863 0 0.173745
0 0.10551 0 0.17025
0.075776 0.0748612 3.46945e-18 0.173074
0.075776 0.0812603 -3.46945e-18 0.172447
0 0.113022 0 0.169609
0.075776 0.0878918 3.46945e-18 0.171829
0 0.120806 0 0.168964
0.075776 0.0947639 3.46945e-18 0.171204
0.075776 0.101886 -3.46945e-18 0.17057
0 0.128874 0 0.168316
0.075776 0.109266 3.46945e-18 0.169931
0 0.137234 0 0.167666
0.075776 0.116914 3.46945e-18 0.169287
0 0.145897 0 0.167022
0.075776 0.12484 0 0.16864
0.151552 0 0 0.168612
0.151552 0.00368111 0 0.16851
0.151552 0.00749587 0 0.168322
0.151552 0.0114491 0 0.168182
0.151552 0.0155459 0 0.168072
0.151552 0.0197915 0 0.167941
0.075776 0.133054 0 0.167991
0.151552 0.0241911 0 0.167774
0.151552 0.0287506 0 0.167574
0 0.154876 0 0.166397
0.151552 0.0334755 0 0.167347
0.151552 0.038372 0 0.167101
0.151552 0.0434463 0 0.166843
0.151552 0.0487048 0 0.166576
0.075776 0.141566 0 0.167342
0.151552 0.0541543 0 0.166301
0.151552 0.0598016 0 0.166023
0 0.16418 0 0.165804
0.151552 0.0656539 0 0.165747
0.151552 0.0717187 0 0.165484
0.075776 0.150387 0 0.166702
0.151552 0.0780037 0 0.165237
0.151552 0.0845169 0 0.164995
0 0.173822 0 0.165246
0.075776 0.159528 0 0.166091
0.151552 0.0912666 0 0.164745
0.151552 0.0982613 0 0.164483
0 0.183814 0 0.16471
0.151552 0.10551 0 0.164209
0.075776 0.169001 3.46945e-18 0.165517
0.151552 0.113022 0 0.163925
0.151552 0.120806 0 0.163629
0 0.194169 0 0.164181
0.075776 0.178818 3.46945e-18 0.164974
0.151552 0.128874 0 0.16332
0.075776 0.188992 3.46945e-18 0.164446
0.151552 0.137234 0 0.163
0 0.2049 0 0.163641
0.151552 0.145897 0 0.162674
0.075776 0.199535 0 0.163916
0 0.21602 0 0.163073
0.151552 0.154876 0 0.162351
0.219992 0.00184055 0 0.155442
0.219992 0.00558849 0 0.155533
0.219992 0.00947248 -3.46945e-18 0.155752
0.219992 0.0134975 3.46945e-18 0.155999
0.219992 0.0176687 0 0.156231
0.219992 0.0219913 0 0.156455
0.219993 0.0264709 -3.46945e-18 0.156673
0.219992 0.031113 -3.46945e-18 0.15688
0.219992 0.0359238 3.46945e-18 0.157079
0.151552 0.16418 0 0.16204
0.075776 0.21046 0 0.163365
0.219992 0.0409092 3.46945e-18 0.157271
0.219992 0.0460755 0 0.157456
0.219993 0.0514296 -3.46945e-18 0.157632
0.219992 0.0569779 0 0.157799
0 0.227544 0 0.162473
0.219992 0.0627277 3.46945e-18 0.157956
0.219992 0.0686863 0 0.158101
0.151552 0.173822 0 0.161737
0.219992 0.0748612 3.46945e-18 0.158233
0.075776 0.221782 0 0.16278
0.219992 0.0812603 3.46945e-18 0.158351
0.219992 0.0878917 -3.46945e-18 0.158452
0.151552 0.183814 0 0.161434
7.47806e-17 0.239487 0 0.161848
0.219992 0.0947639 3.46945e-18 0.158536
0.219993 0.101886 3.46945e-18 0.158605
0.075776 0.233516 0 0.162165
0.219993 0.109266 0 0.15866
0.151552 0.194169 0 0.161123
0.219993 0.116914 0 0.158696
0 0.251863 0 0.161209
0.219993 0.12484 0 0.158711
0.151552 0.2049 0 0.160794
0.075776 0.245675 0 0.161531
0.219992 0.133054 3.46945e-18 0.158705
0.219992 0.141565 0 0.15868
0.151552 0.21602 0 0.16044
0 0.264688 0 0.160559
0.219992 0.150387 3.46945e-18 0.15864
0.075776 0.258275 3.46945e-18 0.160887
0.219992 0.159528 -3.46945e-18 0.158593
0.151552 0.227544 0 0.160056
0.219992 0.169001 3.46945e-18 0.158535
0 0.27798 0 0.159897
0.075776 0.271334 3.46945e-18 0.160231
0.151552 0.239487 3.70071e-18 0.159645
0.219992 0.178818 3.46945e-18 0.158458
0.288433 0 0 0.159209
0.288433 0.00368111 0 0.159241
0.288433 0.00749587 0 0.159344
0.288433 0.0114491 0 0.159495
0.288433 0.0155459 3.70071e-18 0.159653
0.288433 0.0197915 0 0.159808
0.288433 0.0241911 3.70071e-18 0.159962
0.288433 0.0287506 0 0.160112
0.219992 0.188991 0 0.158359
0.288433 0.0334755 0 0.160258
0.288433 0.038372 0 0.1604
0.288433 0.0434463 0 0.160539
7.47806e-17 0.291753 0 0.15922
0.288433 0.0487048 0 0.160672
0.288433 0.0541543 0 0.160799
0.151552 0.251863 0 0.159212
0.288433 0.0598016 3.70071e-18 0.160921
0.075776 0.284866 0 0.159562
0.288433 0.0656539 3.70071e-18 0.161038
0.219992 0.199534 0 0.158238
0.288433 0.0717187 0 0.16115
0.288433 0.0780037 0 0.161255
0.288433 0.0845169 0 0.161353
0.288433 0.0912666 0 0.16144
0.219992 0.21046 -3.46945e-18 0.158094
0.288433 0.0982613 0 0.161506
0.151552 0.264688 3.70071e-18 0.158762
0 0.306027 0 0.158526
0.288433 0.10551 0 0.161547
0.075776 0.29889 3.46945e-18 0.158878
0.288433 0.113022 0 0.161565
0.219993 0.221782 0 0.157923
0.288433 0.120806 0 0.161567
0.288433 0.128874 0 0.161559
0.151552 0.27798 0 0.158295
0.288433 0.137234 0 0.161537
0 0.320819 0 0.15781
0.219992 0.233515 -3.46945e-18 0.157724
0.075776 0.313423 -3.46945e-18 0.158173
0.288433 0.145897 0 0.161501
0.288433 0.154876 0 0.161449
0.151552 0.291753 0 0.157811
0.219993 0.245675 0 0.157496
0.288433 0.16418 0 0.161383
0 0.336148 0 0.157079
0.288433 0.173822 0 0.1613
0.075776 0.328484 -3.46945e-18 0.157446
0.219993 0.258275 -3.46945e-18 0.157241
0.151552 0.306027 0 0.157303
0.288433 0.183814 0 0.161198
0.288433 0.194169 0 0.161075
0.219992 0.271334 3.46945e-18 0.156963
0.350249 0.00184056 -3.46945e-18 0.1627
0.350249 0.00558849 0 0.162739
0.350249 0.00947248 3.46945e-18 0.162809
0.350249 0.0134975 0 0.162889
0.350249 0.0176687 0 0.162974
0.350249 0.0219913 0 0.163064
0.350249 0.0264708 3.46945e-18 0.163157
0.350249 0.031113 0 0.16325
0 0.352034 0 0.156349
0.350249 0.0359238 0 0.163343
0.075776 0.344091 0 0.156711
0.350249 0.0409091 0 0.163436
0.350249 0.0460756 3.46945e-18 0.163527
0.288433 0.2049 0 0.160929
0.350249 0.0514296 0 0.163614
0.151552 0.320819 0 0.156766
0.350249 0.0569779 0 0.163699
0.350249 0.0627277 3.46945e-18 0.163784
0.350249 0.0686863 3.46945e-18 0.16387
0.350249 0.0748612 3.46945e-18 0.163956
0.350249 0.0812603 0 0.164044
0.219992 0.284867 0 0.156669
0.288433 0.21602 0 0.16076
0.350249 0.0878917 0 0.164132
0.350249 0.094764 0 0.164207
0.350249 0.101886 0 0.164246
0.350249 0.109266 0 0.164248
0.288433 0.227544 0 0.160565
0.075776 0.360265 3.46945e-18 0.155986
0 0.368496 0 0.15562
0.151552 0.336148 0 0.156201
0.350249 0.116914 3.46945e-18 0.164232
0.219992 0.29889 0 0.15635
0.370854 0.0241911 1.54074e-33 0.164996
0.350249 0.12484 0 0.164211
0.350249 0.133054 0 0.16419
0.288433 0.239487 -9.25154e-19 0.160343
0.350249 0.141566 3.46945e-18 0.164158
0.350249 0.150387 3.46945e-18 0.164108
0.288433 0.251863 0 0.160093
0.219992 0.313423 0 0.155997
0.151552 0.352034 0 0.155616
0.075776 0.377027 0 0.155253
0.350249 0.159528 0 0.164038
0 0.385557 0 0.154866
0.350249 0.169001 0 0.163952
0.288433 0.264688 0 0.159817
0.350249 0.178818 0 0.163846
0.219992 0.328484 0 0.155606
0.350249 0.188992 0 0.163721
0.151552 0.368496 0 0.155011
0.288433 0.27798 3.70071e-18 0.159516
0.075776 0.394397 0 0.154479
0.350249 0.199535 0 0.163575
7.47806e-17 0.403236 0 0.154067
0.219992 0.344091 0 0.155174
0.350249 0.21046 -3.46945e-18 0.163406
0.288433 0.291753 0 0.15919
0.412065 9.08189e-19 3.08149e-33 0.167236
0.412065 0.00368111 -2.31298e-18 0.167249
0.412065 0.00749587 -2.31298e-18 0.167288
0.412065 0.0114491 -2.31298e-18 0.16734
0.412065 0.0155459 -2.31298e-18 0.167396
0.412065 0.0197915 0 0.167454
0.412065 0.0241911 -3.08149e-33 0.167513
0.412065 0.0264709 0 0.167543
0.412065 0.0287506 -2.31298e-18 0.167573
0.412065 0.0334755 -2.31298e-18 0.167635
0.412065 0.038372 -2.31298e-18 0.167698
0.151552 0.385557 0 0.154372
0.412065 0.0434463 0 0.167763
0.350249 0.221782 0 0.163214
0.412065 0.0487048 0 0.167829
0.412065 0.0541543 -3.08149e-33 0.167894
0.412065 0.0569779 0 0.167927
0.412065 0.0598016 -2.31298e-18 0.16796
0.412065 0.0656539 -2.31298e-18 0.168024
0.412065 0.0717187 -2.31298e-18 0.168086
0.075776 0.412396 -3.46945e-18 0.153655
0.412065 0.0780037 -2.31298e-18 0.168146
0.288433 0.306027 0 0.158835
0.412065 0.0845169 -2.31298e-18 0.168204
0.350249 0.233516 3.46945e-18 0.162998
0 0.421557 0 0.153223
0.412065 0.0912666 -2.31298e-18 0.168246
0.219992 0.360265 3.46945e-18 0.154703
0.412065 0.0982613 0 0.168259
0.412065 0.10551 0 0.168242
0.412065 0.113022 -2.31298e-18 0.168204
0.350249 0.245675 0 0.162754
0.412065 0.120806 0 0.168156
0.151552 0.403236 0 0.153689
0.288433 0.320819 0 0.158445
0.412065 0.128874 -2.31298e-18 0.1681
0.412065 0.137234 0 0.168036
0.350249 0.258275 -3.46945e-18 0.162483
0.219992 0.377026 0 0.154193
0.412065 0.145897 -2.31298e-18 0.167959
0.075776 0.431051 0 0.152791
0.412065 0.154876 -2.31298e-18 0.167868
0 0.440544 0 0.152344
0.288433 0.336148 0 0.158018
0.350249 0.271334 0 0.162183
0.412065 0.16418 -2.31298e-18 0.167762
0.412065 0.173822 -2.31298e-18 0.16764
0.151552 0.421557 0 0.15296
0.412065 0.183814 -2.31298e-18 0.1675
0.350249 0.284867 3.46945e-18 0.161854
0.219992 0.394397 0 0.15364
0.288433 0.352034 3.70071e-18 0.157551
0.412065 0.194169 0 0.167341
0.075776 0.450382 0 0.151895
0.412065 0.2049 -2.31298e-18 0.167163
0 0.46022 0 0.151432
0.350249 0.29889 3.46945e-18 0.161497
0.412065 0.21602 0 0.166963
0.151552 0.440544 0 0.152188
0.219993 0.412396 3.46945e-18 0.153041
0.467897 0.00184056 -3.46945e-18 0.171455
0.467897 0.00558849 0 0.171473
0.288433 0.368496 0 0.157044
0.467897 0.00947248 0 0.171501
0.467897 0.0134975 0 0.171534
0.467897 0.0176687 3.46945e-18 0.171565
0.467897 0.0219913 -3.46945e-18 0.171594
0.467897 0.0264709 3.46945e-18 0.171623
0.467897 0.0311131 3.46945e-18 0.171654
0.467897 0.0359238 -3.46945e-18 0.171688
0.467897 0.038372 0 0.172129
0.467897 0.0409092 3.46945e-18 0.171726
0.350249 0.313423 0 0.161108
0.467897 0.0460755 0 0.171768
0.467897 0.0514296 3.46945e-18 0.171813
0.412065 0.227544 -2.31298e-18 0.16674
0.467897 0.0569779 0 0.171861
0.467897 0.0627277 -3.46945e-18 0.171909
0.467897 0.0686863 3.46945e-18 0.171951
0.467897 0.0748612 0 0.171987
0.467897 0.0812603 0 0.172021
0.467897 0.0878918 3.46945e-18 0.172044
0.075776 0.470415 3.46945e-18 0.150968
0.412065 0.239487 -2.31298e-18 0.166492
0.467897 0.0947639 -3.46945e-18 0.172034
0.467897 0.101886 3.46945e-18 0.171989
0.350249 0.328483 0 0.160684
0.467897 0.109266 0 0.171927
0 0.48061 0 0.150489
0.288433 0.385557 0 0.156495
0.467897 0.116914 0 0.171857
0.412065 0.251863 -2.31298e-18 0.166218
0.219992 0.431051 0 0.152393
0.467897 0.12484 0 0.171775
0.151552 0.46022 0 0.151374
0.467897 0.133054 3.46945e-18 0.171681
0.467897 0.141566 3.46945e-18 0.171577
0.412065 0.264688 -2.31298e-18 0.165916
0.350249 0.344091 -3.46945e-18 0.160224
0.467897 0.150387 3.46945e-18 0.171463
0.467897 0.154876 0 0.171917
0.467897 0.159528 3.46945e-18 0.171337
0.288433 0.403236 0 0.155902
0.075776 0.491175 0 0.150008
0.412065 0.27798 -2.31298e-18 0.165584
0.467897 0.169001 0 0.171198
0.467897 0.178818 3.46945e-18 0.171043
0.219992 0.450382 0 0.151695
6.73026e-17 0.501741 3.70071e-18 0.149508
0.350249 0.360265 0 0.159723
0.151552 0.48061 0 0.150519
0.467897 0.188991 0 0.170873
0.412065 0.291753 0 0.165222
0.467897 0.199535 0 0.170685
0.288433 0.421557 0 0.15526
0.467897 0.21046 0 0.170477
0.412065 0.306027 0 0.164827
0.350249 0.377027 0 0.159181
0.467897 0.221782 3.46945e-18 0.170248
0.075776 0.51269 0 0.149007
0.219993 0.470415 3.46945e-18 0.150947
0.467897 0.227544 0 0.170623
0.412065 0.320819 -2.31298e-18 0.164398
0.467897 0.233515 0 0.169997
6.73026e-17 0.523639 3.70071e-18 0.148485
0.523729 0 0 0.176375
0.523729 0.00368111 0 0.176382
0.523729 0.00749587 -2.31298e-18 0.176402
0.523729 0.0114491 0 0.17643
0.523729 0.0155459 0 0.176458
0.523729 0.0197915 -2.31298e-18 0.176481
0.151552 0.501741 0 0.14962
0.523729 0.0241911 0 0.1765
0.523729 0.0287506 0 0.176519
0.523729 0.0334755 0 0.176539
0.523729 0.038372 -3.08149e-33 0.176561
0.523729 0.0434463 0 0.176586
0.523729 0.0487048 0 0.176614
0.523729 0.0541543 0 0.176645
0.288433 0.440544 0 0.154569
0.523729 0.0598016 0 0.176678
0.350249 0.394397 -3.46945e-18 0.158594
0.523729 0.0656539 0 0.17671
0.467897 0.245675 0 0.16972
0.523729 0.0717187 0 0.17674
0.523729 0.0780037 0 0.176764
0.523729 0.0845169 0 0.176775
0.523729 0.0912666 0 0.176757
0.412065 0.336148 0 0.163931
0.523729 0.0982613 0 0.176705
0.523729 0.10551 -2.31298e-18 0.176633
0.467897 0.258275 -3.46945e-18 0.169417
0.523729 0.113022 0 0.176549
0.523729 0.120806 -3.08149e-33 0.176456
0.219993 0.491176 0 0.150148
0.523729 0.12484 0 0.176404
0.523729 0.128874 -2.31298e-18 0.176351
0.075776 0.534986 0 0.147962
0.467897 0.271334 3.46945e-18 0.169084
0.350249 0.412396 -3.46945e-18 0.15796
0.523729 0.137234 0 0.176234
0.412065 0.352034 -2.31298e-18 0.163425
0.288433 0.46022 0 0.153825
0.523729 0.145897 0 0.176106
0.151552 0.523639 0 0.148671
0.523729 0.154876 -3.08149e-33 0.175965
0 0.546332 0 0.147417
0.523729 0.159528 0 0.175887
0.467897 0.284867 -3.46945e-18 0.168721
0.523729 0.16418 -2.31298e-18 0.17581
0.523729 0.173822 0 0.175639
0.412065 0.368496 0 0.162876
0.523729 0.183814 0 0.175452
0.467897 0.29889 0 0.168325
0.350249 0.431051 -3.46945e-18 0.157278
0.219992 0.51269 0 0.149298
0.523729 0.194169 0 0.175246
0.288433 0.48061 0 0.153029
0.523729 0.2049 0 0.175021
0.467897 0.313423 3.46945e-18 0.167893
0.075776 0.558091 0 0.146871
0.412065 0.385557 0 0.162282
0.523729 0.21602 -3.08149e-33 0.174775
0.151552 0.546332 0 0.147669
0 0.569849 0 0.146303
0.350249 0.450382 3.46945e-18 0.156543
0.523729 0.227544 -3.08149e-33 0.174505
0.467897 0.328483 0 0.167424
0.523729 0.231525 1.54074e-33 0.174407
0.574156 0.00184056 0 0.180971
0.574156 0.00558849 0 0.180984
0.574157 0.00947248 0 0.181006
0.574156 0.0134975 -3.46945e-18 0.181034
0.574156 0.0176687 -3.46945e-18 0.181056
0.574156 0.0219913 0 0.181068
0.574156 0.0264708 -3.46945e-18 0.181075
0.574156 0.031113 0 0.181083
0.574156 0.0359238 -3.46945e-18 0.181091
0.574157 0.0409092 0 0.181101
0.523729 0.239487 3.70071e-18 0.174211
0.574156 0.0460755 -3.46945e-18 0.181113
0.574156 0.0514295 0 0.181128
0.412065 0.403236 0 0.161642
0.574157 0.0569779 0 0.181147
0.574156 0.0627277 0 0.181167
0.574156 0.0686863 0 0.181188
0.219992 0.534986 0 0.148389
0.288433 0.501741 0 0.152177
0.574156 0.0748612 3.46945e-18 0.181208
0.574156 0.0812603 0 0.181218
0.467897 0.344091 0 0.166914
0.574156 0.0878917 3.46945e-18 0.181198
0.523729 0.251863 0 0.17389
0.574157 0.0947639 0 0.181135
0.574156 0.101886 0 0.181049
0.574156 0.109266 0 0.180954
0.574156 0.116914 0 0.18085
0.412065 0.416977 -6.16298e-33 0.161124
0.350249 0.470415 0 0.155754
0.523729 0.264688 0 0.173541
0.075776 0.582034 0 0.145733
0.574156 0.12484 0 0.180735
0.574156 0.133054 3.46945e-18 0.180609
0.412065 0.421557 -2.31298e-18 0.160952
0.151552 0.569849 0 0.146611
0.467897 0.360265 -3.46945e-18 0.166362
0.574157 0.141566 -3.46945e-18 0.180469
0.523729 0.27798 0 0.173162
0.574156 0.150386 3.46945e-18 0.180316
0 0.594219 0 0.14514
0.574156 0.159528 -3.46945e-18 0.180148
0.574156 0.16418 0 0.18053
0.288433 0.523639 1.2326e-32 0.151267
0.574157 0.169001 0 0.179964
0.523729 0.291753 0 0.172749
0.219993 0.558091 3.46945e-18 0.147416
0.467897 0.377026 0 0.165766
0.574156 0.178818 3.46945e-18 0.179762
0.412065 0.440544 -2.31298e-18 0.16021
0.350249 0.491175 0 0.154907
0.574156 0.188992 3.46945e-18 0.179542
0.523729 0.306027 -3.08149e-33 0.172302
0.574157 0.199535 0 0.179303
0.574157 0.21046 0 0.179041
0.075776 0.606847 0 0.144544
0.467897 0.394397 0 0.165122
0.151552 0.594219 0 0.145494
0.523729 0.320819 0 0.171817
0.574157 0.221782 -3.46945e-18 0.178757
0.412065 0.46022 3.08149e-33 0.159413
0.288433 0.546332 0 0.150294
0 0.619475 0 0.143922
0.574156 0.233515 3.46945e-18 0.178448
0.350249 0.51269 3.46945e-18 0.154001
0.219992 0.582034 3.46945e-18 0.146377
0.523729 0.336148 0 0.171293
0.467897 0.412396 0 0.164429
0.574156 0.245675 0 0.178113
0.624584 0 0 0.186592
0.624584 0.00368111 0 0.186597
0.624584 0.00749587 0 0.186614
0.624584 0.0114491 0 0.186639
0.624584 0.0155459 0 0.186662
0.624584 0.0197915 0 0.186676
0.624584 0.0241911 -2.31298e-18 0.186678
0.624584 0.0287506 0 0.186677
0.624584 0.0334755 0 0.186675
0.624584 0.038372 0 0.186673
0.624584 0.0434463 -2.31298e-18 0.186673
0.624584 0.0487048 0 0.186674
0.624584 0.0541543 0 0.186677
0.624584 0.0598016 0 0.186681
0.624584 0.0656539 0 0.186685
0.624584 0.0717187 0 0.186689
0.624584 0.0780037 0 0.186685
0.574157 0.258276 3.46945e-18 0.17775
0.624584 0.0845169 0 0.186656
0.523729 0.352034 0 0.170727
0.624584 0.0912666 0 0.186589
0.624584 0.0982613 0 0.186491
0.412065 0.48061 3.08149e-33 0.158558
0.624584 0.10551 0 0.186379
0.624584 0.113022 -2.31298e-18 0.186257
0.574156 0.271334 0 0.177356
0.624584 0.120806 0 0.186124
0.467897 0.431051 0 0.163683
0.075776 0.632561 -3.46945e-18 0.143298
0.624584 0.128874 0 0.185978
0.151552 0.619475 0 0.144315
0.288433 0.569849 0 0.149255
0.350249 0.534985 0 0.153031
0.624584 0.137234 -2.31298e-18 0.185819
0.523729 0.368496 0 0.170116
0.574156 0.284866 -3.46945e-18 0.176931
0.624584 0.145897 0 0.185646
0.467897 0.440544 0 0.163691
0.624584 0.154876 0 0.185456
0.219992 0.606847 -3.46945e-18 0.145268
0 0.645647 0 0.142646
0.624584 0.16418 -3.08149e-33 0.185251
0.574156 0.29889 -3.46945e-18 0.176471
0.624584 0.173822 0 0.185028
0.412065 0.501741 1.54074e-33 0.157643
0.467897 0.450382 -3.46945e-18 0.162882
0.523729 0.385557 0 0.169458
0.624584 0.183814 0 0.184785
0.624584 0.194169 0 0.184523
0.574156 0.313423 0 0.175974
0.624584 0.2049 0 0.184239
0.350249 0.558091 3.46945e-18 0.151996
0.288433 0.594219 0 0.148146
0.624584 0.21602 0 0.183932
0.523729 0.403236 0 0.16875
0.574156 0.328483 -3.46945e-18 0.175439
0.151552 0.645647 0 0.14307
0.467897 0.470415 3.46945e-18 0.162024
0.075776 0.659208 0 0.141992
0.624584 0.227544 0 0.1836
0.412065 0.523639 0 0.156664
0.523729 0.41545 3.08149e-33 0.168243
0.624584 0.239487 3.70071e-18 0.183241
0.574156 0.344091 0 0.174862
0.219992 0.632561 0 0.144089
0.67013 0.00184055 0 0.191868
0.67013 0.00558849 0 0.191879
0.67013 0.00947248 0 0.1919
0.67013 0.0134975 0 0.191928
0.67013 0.0176687 -3.46945e-18 0.191945
0.67013 0.0219913 0 0.191947
0.67013 0.0264708 3.46945e-18 0.191939
0.67013 0.0311131 0 0.191928
0.67013 0.0359237 0 0.191916
0.67013 0.0409092 -3.46945e-18 0.191903
0.67013 0.0460755 0 0.191893
0.67013 0.0514296 3.46945e-18 0.191883
0.523729 0.421557 -2.31298e-18 0.16799
0.67013 0.056978 0 0.191873
0 0.67277 0 0.141309
0.67013 0.0627277 0 0.191862
0.624584 0.251863 0 0.182854
0.67013 0.0686863 0 0.191852
0.67013 0.0748612 3.46945e-18 0.191839
0.67013 0.0812603 0 0.191808
0.67013 0.0878917 0 0.191735
0.67013 0.0947639 3.46945e-18 0.191625
0.574156 0.360265 0 0.17424
0.67013 0.101886 0 0.191498
0.523729 0.431051 0 0.167581
0.624584 0.264688 0 0.182437
0.467897 0.491175 0 0.161105
0.67013 0.109266 3.46945e-18 0.191361
0.350249 0.582034 0 0.150891
0.67013 0.116914 0 0.191212
0.67013 0.12484 0 0.19105
0.67013 0.133054 0 0.190874
0.288433 0.619475 0 0.146966
0.624584 0.27798 -3.08149e-33 0.181988
0.412065 0.546332 1.54074e-33 0.155619
0.523729 0.440544 -3.08149e-33 0.167173
0.67013 0.141566 3.46945e-18 0.190682
0.685312 0.0241911 -7.70372e-34 0.194201
0.685312 0.0434463 -7.70372e-34 0.194137
0.67013 0.150387 0 0.190475
0.574156 0.377026 -3.46945e-18 0.173572
0.67013 0.159528 0 0.190251
0.624584 0.291753 0 0.181505
0.151552 0.67277 0 0.141757
0.075776 0.686823 0 0.140623
0.67013 0.169001 0 0.190009
0.67013 0.178818 0 0.189748
0.467897 0.51269 0 0.160122
0.685312 0.113022 -7.70372e-34 0.193437
0.219992 0.659208 0 0.142837
0.624584 0.306027 0 0.180985
0.67013 0.188991 0 0.189466
0.574156 0.394397 3.46945e-18 0.172854
0.523729 0.46022 0 0.166299
0.685312 0.137234 -7.70372e-34 0.192899
0.67013 0.199535 -3.46945e-18 0.189162
0.350249 0.606847 0 0.149714
0 0.700877 0 0.139905
0.624584 0.320819 0 0.180426
0.67013 0.21046 0 0.188835
0.412065 0.569849 -2.31298e-18 0.154504
0.67013 0.221782 -3.46945e-18 0.188483
0.574157 0.412396 0 0.172083
0.288433 0.645647 0 0.14571
0.624584 0.336148 -3.08149e-33 0.179826
0.67013 0.233515 3.46945e-18 0.188104
0.467897 0.534986 0 0.159073
0.523729 0.48061 0 0.165363
0.624584 0.344091 0 0.179504
0.67013 0.245675 0 0.187697
0.715676 4.54095e-19 0 0.1979
0.715676 0.00368111 0 0.197905
0.715676 0.00749587 0 0.197921
0.715676 0.0114491 0 0.197945
0.715676 0.0155459 0 0.197966
0.715676 0.0197915 0 0.197973
0.715676 0.0241911 0 0.197963
0.715676 0.0287506 0 0.197944
0.715676 0.0334755 0 0.197921
0.715676 0.038372 0 0.197895
0.624584 0.352034 -2.31298e-18 0.179182
0.715676 0.0434463 0 0.197869
0.151552 0.700877 0 0.140372
0.715676 0.0487048 0 0.197842
0.715676 0.0541543 0 0.197816
0.574156 0.43105 0 0.171257
0.715676 0.0598016 0 0.197789
0.67013 0.258275 0 0.18726
0.715676 0.0656539 0 0.197761
0.715676 0.0717187 0 0.19773
0.075776 0.715441 0 0.139185
0.715676 0.0780037 0 0.197687
0.715676 0.0845169 0 0.19761
0.219992 0.686824 0 0.141508
0.715676 0.0912666 0 0.197493
0.715676 0.0982613 0 0.19735
0.67013 0.271334 -3.46945e-18 0.186791
0.350249 0.632561 -3.46945e-18 0.148462
0.412065 0.594219 3.08149e-33 0.153315
0.715676 0.10551 0 0.197195
0.715676 0.113022 0 0.197028
0.624584 0.368496 0 0.178491
0.523729 0.501741 0 0.164362
0.715676 0.120806 0 0.196846
0.715676 0.128874 0 0.19665
0.67013 0.284867 0 0.186288
0.467897 0.558091 3.46945e-18 0.157953
0.715676 0.137234 0 0.196439
0.574156 0.450382 0 0.170371
0 0.730005 0 0.138432
0.715676 0.145897 0 0.196211
0.288433 0.67277 0 0.144377
0.715676 0.154876 0 0.195965
0.67013 0.29889 0 0.185749
0.624584 0.385557 0 0.17775
0.715676 0.16418 -9.25187e-19 0.195701
0.715676 0.173822 0 0.195417
0.715676 0.183814 0 0.195112
0.67013 0.313423 0 0.185171
0.523729 0.523639 0 0.163293
0.715676 0.194169 0 0.194784
0.574156 0.470415 3.46945e-18 0.169424
0.624584 0.403236 0 0.176957
0.743101 0.0241911 -7.70372e-34 0.201975
0.412065 0.619475 3.08149e-33 0.152049
0.715676 0.2049 0 0.194433
0.151552 0.730005 0 0.138912
0.67013 0.328484 3.46945e-18 0.184552
0.350249 0.659208 0 0.147131
0.467897 0.582034 0 0.156758
0.715676 0.21602 0 0.194056
0.219992 0.715441 0 0.140101
0.075776 0.745097 -3.46945e-18 0.137676
0.715676 0.227544 0 0.193653
0.67013 0.344091 0 0.183889
0.624584 0.421557 0 0.176108
0.743101 0.128874 -7.70372e-34 0.200413
0.715676 0.239487 3.70071e-18 0.193221
0.574156 0.491175 0 0.168411
0.756814 0.00184055 0 0.203591
0.523729 0.546332 0 0.162152
0.756813 0.00558849 0 0.203602
0.756813 0.00947248 0 0.203622
0.756814 0.0134975 -3.46945e-18 0.203649
0.756814 0.0155459 0 0.203993
0.756814 0.0176687 0 0.203663
0.756814 0.0219913 0 0.203655
0.756814 0.0264709 0 0.203632
0.756814 0.031113 -3.46945e-18 0.2036
0.756813 0.0359238 -3.46945e-18 0.203562
0.288433 0.700877 0 0.142963
0.756814 0.0409092 -3.46945e-18 0.203523
0.756813 0.0460755 3.46945e-18 0.203482
0.756813 0.0514296 0 0.20344
0.715676 0.251863 0 0.192759
0.756813 0.0569779 0 0.203398
0.756814 0.0627277 -3.46945e-18 0.203354
0.756814 0.0686863 -3.46945e-18 0.203309
0 0.76019 0 0.136885
0.756814 0.0748612 0 0.203259
0.67013 0.360265 3.46945e-18 0.183179
0.756814 0.0812603 -3.46945e-18 0.203182
0.756814 0.0878917 -3.46945e-18 0.203057
0.756814 0.0947639 -3.46945e-18 0.202899
0.715676 0.264688 0 0.192264
0.756813 0.101886 0 0.202728
0.624584 0.440544 0 0.1752
0.756813 0.109266 3.46945e-18 0.202544
0.756813 0.116914 3.46945e-18 0.202347
0.412065 0.645647 0 0.150703
0.467897 0.606847 0 0.155486
0.756814 0.120806 0 0.20252
0.756813 0.12484 0 0.202134
0.715676 0.27798 0 0.191736
0.756814 0.133054 -3.46945e-18 0.201905
0.67013 0.377026 -3.46945e-18 0.182421
0.756814 0.137234 0 0.202052
0.574156 0.51269 0 0.167329
0.756813 0.141566 3.46945e-18 0.201659
0.685312 0.352034 -7.70372e-34 0.185393
0.743101 0.2049 -7.70372e-34 0.198013
0.350249 0.686824 0 0.145717
0.756814 0.150387 0 0.201394
0.756814 0.154876 0 0.201514
0.715676 0.291753 0 0.191171
0.756814 0.159528 -3.46945e-18 0.201111
0.523729 0.569849 0 0.160936
0.72743 0.264688 0 0.193741
0.756814 0.16418 0 0.201216
0.151552 0.76019 0 0.137372
0.756813 0.169001 3.46945e-18 0.200807
0.624584 0.46022 0 0.174229
0.219993 0.745097 0 0.138612
0.67013 0.394396 0 0.18161
0.756813 0.178818 -3.46945e-18 0.200482
0.715676 0.306027 0 0.190567
0.075776 0.775831 0 0.13609
0.756813 0.188991 0 0.200134
0.756814 0.199535 0 0.199762
0.715676 0.320819 0 0.189922
0.574156 0.534985 0 0.166175
0.288433 0.730005 0 0.141465
0.756813 0.21046 0 0.199364
0.467897 0.632561 0 0.154132
0.67013 0.412396 -3.46945e-18 0.180743
0.624584 0.48061 -3.08149e-33 0.173192
0.756814 0.221782 0 0.198939
0.412065 0.67277 3.08149e-33 0.149272
0.715676 0.336148 0 0.189234
0 0.791472 0 0.13526
0.756813 0.233516 3.46945e-18 0.198486
0.523729 0.594219 0 0.159641
0.624584 0.487654 1.54074e-33 0.172823
0.756814 0.245675 3.46945e-18 0.198002
0.350249 0.715441 3.46945e-18 0.144218
0.67013 0.43105 0 0.179817
0.715676 0.352034 -9.25187e-19 0.188499
0.797951 9.08189e-19 -3.08149e-33 0.209956
0.797951 0.00368111 2.31298e-18 0.209962
0.797951 0.00749587 2.31298e-18 0.209978
0.797951 0.0114491 2.31298e-18 0.210002
0.797951 0.0141803 7.70372e-34 0.210014
0.797951 0.0155459 0 0.210021
0.797951 0.0169611 7.70372e-34 0.210021
0.797951 0.0197915 2.31298e-18 0.21002
0.797951 0.0219913 0 0.210009
0.797951 0.0241911 3.08149e-33 0.209998
0.797951 0.0264709 0 0.209978
0.797951 0.0287506 -3.08149e-33 0.209959
0.797951 0.0334755 2.31298e-18 0.209909
0.797951 0.038372 2.31298e-18 0.209853
0.797951 0.0434463 2.31298e-18 0.209793
0.797951 0.0487048 0 0.209731
0.756813 0.258275 -3.46945e-18 0.197486
0.797951 0.0541543 2.31298e-18 0.209667
0.797951 0.0598016 2.31298e-18 0.209601
0.797951 0.0656539 2.31298e-18 0.209533
0.574156 0.55809 0 0.164944
0.624584 0.501741 0 0.172086
0.797951 0.0717187 2.31298e-18 0.209458
0.797951 0.0780037 -3.08149e-33 0.209364
0.797951 0.0845169 2.31298e-18 0.20923
0.797951 0.0912666 -3.08149e-33 0.209059
0.797951 0.0982613 2.31298e-18 0.208864
0.756813 0.271334 0 0.196935
0.797951 0.10551 2.31298e-18 0.208656
0.715676 0.368496 0 0.187715
0.151552 0.791472 0 0.135751
0.797951 0.113022 2.31298e-18 0.208433
0.219992 0.775831 3.46945e-18 0.137037
0.797951 0.118211 7.70372e-34 0.208274
0.770526 0.239487 1.54074e-33 0.200224
0.797951 0.120806 0 0.208195
0.67013 0.450382 3.46945e-18 0.178829
0.797951 0.128874 3.08149e-33 0.207939
0.467897 0.659208 0 0.152693
0.756813 0.284866 -3.46945e-18 0.196348
0.743101 0.320819 -7.70372e-34 0.193251
0.797951 0.137234 0 0.207666
0.797951 0.141566 0 0.20752
0.797951 0.145897 -9.25187e-19 0.207374
0.523729 0.619475 0 0.158262
0.075776 0.807681 0 0.134425
0.797951 0.150387 0 0.207218
0.797951 0.154876 0 0.207062
0.715676 0.385557 0 0.186878
0.412065 0.700877 3.08149e-33 0.147754
0.288433 0.76019 0 0.13988
0.756813 0.29889 0 0.195723
0.797951 0.16418 0 0.206731
0.624584 0.523639 0 0.170906
0.797951 0.167394 7.70372e-34 0.206613
0.797951 0.173822 2.31298e-18 0.206377
0.574156 0.582034 0 0.163633
0.67013 0.470415 0 0.177774
0.797951 0.183814 2.31298e-18 0.206
0.756813 0.313423 -3.46945e-18 0.195056
0.797951 0.194169 -9.25187e-19 0.2056
0.715676 0.403236 0 0.185987
0.151552 0.807681 0 0.134897
0.797951 0.197746 -7.70372e-34 0.205458
0.350249 0.745097 0 0.142629
0.797951 0.2049 3.08149e-33 0.205173
0 0.823889 0 0.133553
0.756813 0.328483 -3.46945e-18 0.194347
0.797951 0.21046 0 0.204947
0.797951 0.21602 -3.08149e-33 0.20472
0.797951 0.223703 7.70372e-34 0.204399
0.797951 0.227544 9.25187e-19 0.204238
0.624584 0.546332 0 0.169649
0.715676 0.421557 0 0.185036
0.67013 0.491176 -3.46945e-18 0.17665
0.797951 0.231525 7.70372e-34 0.204067
0.467897 0.686824 -3.46945e-18 0.151163
0.523729 0.645647 0 0.156795
0.756813 0.344091 -3.46945e-18 0.193591
0.822721 0.120806 7.70372e-34 0.212082
0.797951 0.239487 -3.08149e-33 0.203726
0.822721 0.137234 7.70372e-34 0.21151
0.835106 0.00184056 0 0.215994
0.835106 0.00558849 0 0.216006
0.835106 0.00947248 0 0.216027
0.835106 0.0134975 0 0.216053
0.835107 0.0176687 0 0.216062
0.835106 0.0219913 -3.46945e-18 0.216044
0.574156 0.606847 3.46945e-18 0.162237
0.835106 0.0241911 0 0.216197
0.835106 0.0264709 -3.46945e-18 0.216004
0.822721 0.145897 -7.70372e-34 0.211196
0.835106 0.031113 3.46945e-18 0.215945
0.835106 0.0359238 3.46945e-18 0.215876
0.835106 0.0409092 -3.46945e-18 0.2158
0.835106 0.0460755 3.46945e-18 0.21572
0.835106 0.0514296 0 0.215637
0.797951 0.251863 -3.08149e-33 0.203181
0.835106 0.0541543 0 0.215767
0.835106 0.0569779 0 0.215551
0.219992 0.807681 3.46945e-18 0.135375
0.822721 0.154876 7.70372e-34 0.210862
0.835106 0.0627277 0 0.215461
0.151552 0.823889 0 0.134043
0.797951 0.255069 -1.54074e-33 0.203037
0.835106 0.0686863 3.46945e-18 0.215368
0.756814 0.360265 -3.46945e-18 0.192786
0.412065 0.730005 0 0.146143
0.835106 0.0748612 0 0.215261
0.822721 0.16418 7.70372e-34 0.210506
0.835106 0.0812603 0 0.21512
0.835106 0.0878917 -3.46945e-18 0.214934
0.715676 0.440544 0 0.184022
0.835106 0.094764 0 0.214719
0.797951 0.264688 -1.2326e-32 0.202603
0.835106 0.101886 -3.46945e-18 0.214489
0.835106 0.109266 3.46945e-18 0.214244
0.288433 0.791472 0 0.138203
0.835106 0.116914 0 0.213982
0.67013 0.51269 3.46945e-18 0.175451
0.797951 0.274657 6.16298e-33 0.202142
0.075776 0.840686 -3.46945e-18 0.132677
0.835106 0.12484 0 0.213703
0.797951 0.27798 -3.08149e-33 0.201989
0.624584 0.569849 0 0.16831
0.756813 0.377026 -3.46945e-18 0.191929
0.835106 0.133054 3.46945e-18 0.213406
0.835106 0.141565 3.46945e-18 0.213089
0.835106 0.150386 0 0.212753
0.797951 0.291753 0 0.201337
0.835106 0.159528 3.46945e-18 0.212396
0.715676 0.46022 0 0.182943
0.816529 0.239487 -1.54074e-33 0.20642