# pMean  POINT_DATA 63840
# x  y  z  pMean
0 0.5 3.39583e-17 0.149589
0 0.5 -0.00617931 0.149812
0 0.5 0.00617931 0.149369
0.0124865 0.5 -0.00617931 0.149812
0.0124865 0.5 0.00617931 0.149369
0 0.5 -0.0688207 0.151866
0 0.5 0.0688207 0.146951
0.0124865 0.5 -0.0688207 0.151866
0.0124865 0.5 0.0688207 0.146951
0 0.5 -0.075 0.152049
0 0.5 0.075 0.146693
0 0.5 -0.0811793 0.152235
0 0.5 0.0811793 0.146438
0.0124865 0.5 -0.0811793 0.152235
0.0124865 0.5 0.0811793 0.146438
0.075776 0.5 -0.0375 0.150939
0.075776 0.5 0.0375 0.148256
0.075776 0.5 -0.1125 0.153176
0.075776 0.5 0.1125 0.145147
0 0.5 -0.143821 0.153918
0 0.5 0.143821 0.143677
0.0124865 0.5 -0.143821 0.153918
0.0124865 0.5 0.143821 0.143677
0 0.5 -0.15 0.154064
0 0.5 0.15 0.143386
0.151149 0.5 -0.00137318 0.149603
0 0.5 -0.156179 0.154214
0 0.5 0.156179 0.143098
0.0124865 0.5 -0.156179 0.154214
0.0124865 0.5 0.156179 0.143098
0.151149 0.5 0.075 0.146776
0.151149 0.5 -0.075 0.152166
0.075776 0.5 -0.1875 0.154971
0.075776 0.5 0.1875 0.141641
0.151149 0.5 0.15 0.143443
0.151149 0.5 -0.15 0.154188
0 0.5 -0.218821 0.155499
0 0.5 0.218821 0.14002
0.0124865 0.5 -0.218821 0.155499
0.0124865 0.5 0.218821 0.14002
0.219992 0.5 0.0375 0.14844
0.219993 0.5 -0.0375 0.151158
0 0.5 -0.225 0.155603
0 0.5 0.225 0.139699
0 0.5 -0.231179 0.15571
0 0.5 0.231179 0.139381
0.0124865 0.5 -0.231179 0.15571
0.0124865 0.5 0.231179 0.139381
0.219992 0.5 0.1125 0.145278
0.219993 0.5 -0.1125 0.153404
0.151149 0.5 -0.225 0.155745
0.151149 0.5 0.225 0.13973
0.075776 0.5 -0.2625 0.156252
0.075776 0.5 0.2625 0.137772
0.288069 0.5 -0.00137318 0.152123
0.219992 0.5 0.1875 0.141724
0.219993 0.5 -0.1875 0.155213
0 0.5 0.293821 0.136016
0 0.5 -0.293821 0.15659
0.0124865 0.5 -0.293821 0.15659
0.0124865 0.5 0.293821 0.136016
0.288069 0.5 -0.075 0.154825
0.288069 0.5 0.075 0.149179
0 0.5 -0.3 0.156657
0 0.5 0.3 0.135668
0 0.5 0.306179 0.135323
0 0.5 -0.306179 0.156727
0.0124865 0.5 -0.306179 0.156727
0.0124865 0.5 0.306179 0.135323
0.288069 0.5 -0.15 0.15692
0.288069 0.5 0.15 0.145679
0.151149 0.5 -0.3 0.156824
0.151149 0.5 0.3 0.135672
0.219992 0.5 -0.2625 0.156554
0.219992 0.5 0.2625 0.137806
0.075776 0.5 0.3375 0.133579
0.075776 0.5 -0.3375 0.15708
0.350249 0.5 -0.0375 0.156005
0.350249 0.5 0.0375 0.153066
0.288069 0.5 -0.225 0.15851
0.288069 0.5 0.225 0.141768
0.350249 0.5 0.1125 0.149668
0.350249 0.5 -0.1125 0.158443
0 0.5 0.368821 0.131704
0 0.5 -0.368821 0.157243
0.0124865 0.5 -0.368821 0.157243
0.0124865 0.5 0.368821 0.131704
0 0.5 -0.375 0.157275
0 0.5 0.375 0.131333
0 0.5 -0.381179 0.15731
0 0.5 0.381179 0.130964
0.0124865 0.5 -0.381179 0.15731
0.0124865 0.5 0.381179 0.130964
0.350249 0.5 -0.1875 0.160322
0.350249 0.5 0.1875 0.1458
0.219992 0.5 -0.3375 0.157416
0.219992 0.5 0.3375 0.133557
0.151149 0.5 -0.375 0.157449
0.151149 0.5 0.375 0.131306
0.411736 0.5 -0.00137318 0.157578
0.288069 0.5 -0.3 0.159597
0.288069 0.5 0.3 0.137492
0.411736 0.5 -0.075 0.16048
0.411736 0.5 0.075 0.1544
0.075776 0.5 -0.4125 0.157488
0.075776 0.5 0.4125 0.129101
0.350249 0.5 -0.2625 0.161653
0.350249 0.5 0.2625 0.141519
0.411736 0.5 -0.15 0.162693
0.411736 0.5 0.15 0.150592
0 0.5 -0.443821 0.157444
0 0.5 0.443821 0.127125
0.0124865 0.5 -0.443821 0.157444
0.0124865 0.5 0.443821 0.127125
0 0.5 -0.45 0.157435
0 0.5 0.45 0.126734
0 0.5 -0.456179 0.157429
0 0.5 0.456179 0.126345
0.0124865 0.5 -0.456179 0.157429
0.0124865 0.5 0.456179 0.126345
0.219992 0.5 -0.4125 0.157819
0.219993 0.5 0.4125 0.129015
0.411736 0.5 -0.225 0.16432
0.411736 0.5 0.225 0.146322
0.467897 0.5 0.0375 0.159128
0.467897 0.5 -0.0375 0.162276
0.288069 0.5 -0.375 0.160187
0.288069 0.5 0.375 0.132891
0.151149 0.5 -0.45 0.157607
0.151149 0.5 0.45 0.126673
0.467897 0.5 -0.1125 0.164844
0.467897 0.5 0.1125 0.155408
0.350249 0.5 0.3375 0.136883
0.350249 0.5 -0.3375 0.162467
0.075776 0.5 -0.4875 0.1574
0.075776 0.5 0.4875 0.124381
0.467897 0.5 -0.1875 0.166803
0.467897 0.5 0.1875 0.151181
0.411736 0.5 -0.3 0.165378
0.411736 0.5 0.3 0.141641
0 0.5 -0.518821 0.157178
0 0.5 0.518821 0.122322
0.0124865 0.5 0.518821 0.122322
0.0124865 0.5 -0.518821 0.157178
0.523432 0.5 -0.00137318 0.164291
0 0.5 -0.525 0.157134
0 0.5 0.525 0.121914
0.523432 0.5 -0.075 0.167403
0.523432 0.5 0.075 0.160843
0 0.5 -0.531179 0.157092
0 0.5 0.531179 0.121509
0.0124865 0.5 -0.531179 0.157092
0.0124865 0.5 0.531179 0.121509
0.288069 0.5 -0.45 0.160269
0.288069 0.5 0.45 0.12801
0.219992 0.5 -0.4875 0.157727
0.219993 0.5 0.4875 0.124225
0.467897 0.5 -0.2625 0.168142
0.467897 0.5 0.2625 0.146502
0.350249 0.5 -0.4125 0.162754
0.350249 0.5 0.4125 0.131932
0.523432 0.5 -0.15 0.169738
0.523432 0.5 0.15 0.156679
0.151149 0.5 -0.525 0.157295
0.151149 0.5 0.525 0.121816
0.411736 0.5 -0.375 0.165876
0.411736 0.5 0.375 0.136599
0.075776 0.5 -0.5625 0.156884
0.075776 0.5 0.5625 0.119461
0.523432 0.5 -0.225 0.171415
0.523432 0.5 0.225 0.151992
0.574156 0.5 -0.0375 0.169675
0.574156 0.5 0.0375 0.166259
0.467897 0.5 0.3375 0.1414
0.467897 0.5 -0.3375 0.168891
0.574156 0.5 -0.1125 0.172425
0.574156 0.5 0.1125 0.162213
0 0.5 -0.593821 0.15649
0 0.5 0.593821 0.117338
0.0124865 0.5 -0.593821 0.15649
0.0124865 0.5 0.593821 0.117338
0.288069 0.5 -0.525 0.159852
0.288069 0.5 0.525 0.122899
0 0.5 -0.6 0.156411
0 0.5 0.6 0.116918
0.350249 0.5 -0.4875 0.162493
0.350249 0.5 0.4875 0.126717
0.523432 0.5 -0.3 0.172442
0.523432 0.5 0.3 0.146838
0.219992 0.5 -0.5625 0.157174
0.219992 0.5 0.5625 0.119232
0.574156 0.5 -0.1875 0.17448
0.574156 0.5 0.1875 0.157571
0 0.5 -0.606179 0.156335
0 0.5 0.606179 0.116499
0.0124865 0.5 -0.606179 0.156335
0.0124865 0.5 0.606179 0.116499
0.411736 0.5 -0.45 0.1658
0.411736 0.5 0.45 0.131252
0.151149 0.5 -0.6 0.156553
0.151149 0.5 0.6 0.116781
0.62168 0.5 2.64545e-17 0.171759
0.467897 0.5 0.4125 0.135949
0.467897 0.5 -0.4125 0.169036
0.624316 0.5 0.0729402 0.168245
0.624316 0.5 -0.075 0.17538
0.574156 0.5 -0.2625 0.175832
0.574157 0.5 0.2625 0.152396
0.075776 0.5 -0.6375 0.155954
0.075776 0.5 0.6375 0.114387
0.624316 0.5 -0.15 0.177866
0.624316 0.5 0.15 0.163675
0.523432 0.5 -0.375 0.172828
0.523432 0.5 0.375 0.141277
0.350249 0.5 -0.5625 0.161741
0.350249 0.5 0.5625 0.121296
0.624316 0.5 -0.225 0.179601
0.624316 0.5 0.225 0.158501
0.288069 0.5 0.6 0.117607
0.288069 0.5 -0.6 0.158979
0.574156 0.5 -0.3375 0.176504
0.574156 0.5 0.3375 0.146764
0.411736 0.5 -0.525 0.165177
0.411736 0.5 0.525 0.125658
0 0.5 -0.668821 0.1554
0 0.5 0.668821 0.112218
0.0124865 0.5 -0.668821 0.1554
0.0124865 0.5 0.668821 0.112218
0.67013 0.5 0.0375 0.174292
0.67013 0.5 -0.0375 0.178025
0.219993 0.5 -0.6375 0.156207
0.219993 0.5 0.6375 0.114082
0 0.5 -0.675 0.15529
0 0.5 0.675 0.111788
0.467897 0.5 0.4875 0.130207
0.467897 0.5 -0.4875 0.168574
0.67013 0.5 -0.1125 0.180988
0.67013 0.5 0.1125 0.169841
0 0.5 -0.681179 0.155182
0 0.5 0.681179 0.111361
0.0124865 0.5 -0.681179 0.155182
0.0124865 0.5 0.681179 0.111361
0.523432 0.5 -0.45 0.172571
0.523432 0.5 0.45 0.135377
0.151149 0.5 -0.675 0.15541
0.151149 0.5 0.675 0.111611
0.624316 0.5 -0.3 0.180592
0.624316 0.5 0.3 0.152795
0.67013 0.5 0.1875 0.16472
0.67013 0.5 -0.1875 0.183155
0.574156 0.5 -0.4125 0.176488
0.574157 0.5 0.4125 0.140736
0.708171 0.5 1.88651e-17 0.179614
0.075776 0.5 -0.7125 0.154641
0.075776 0.5 0.7125 0.109202
0.715434 0.5 0.0736268 0.176152
0.715434 0.5 -0.075 0.184153
0.67013 0.5 0.2625 0.158989
0.67013 0.5 -0.2625 0.184519
0.350249 0.5 -0.6375 0.160537
0.350249 0.5 0.6375 0.11572
0.411736 0.5 -0.6 0.164057
0.411736 0.5 0.6 0.119878
0.624316 0.5 -0.375 0.180848
0.624316 0.5 0.375 0.146636
0.715434 0.5 -0.15 0.18681
0.715434 0.5 0.15 0.171311
0.467897 0.5 -0.5625 0.167571
0.467897 0.5 0.5625 0.124241
0.288069 0.5 -0.675 0.157687
0.288069 0.5 0.675 0.112184
0.523432 0.5 -0.525 0.171706
0.523432 0.5 0.525 0.129208
0 0.5 -0.743821 0.15394
0 0.5 0.743821 0.107004
0.0124865 0.5 -0.743821 0.15394
0.0124865 0.5 0.743821 0.107004
0.219992 0.5 0.7125 0.108819
0.219992 0.5 -0.7125 0.154848
0.715434 0.5 -0.225 0.188608
0.715434 0.5 0.225 0.165586
0 0.5 -0.75 0.153801
0 0.5 0.75 0.106569
0.67013 0.5 0.3375 0.152734
0.67013 0.5 -0.3375 0.185097
0.574156 0.5 -0.4875 0.175801
0.574156 0.5 0.4875 0.134389
0 0.5 -0.756179 0.153664
0 0.5 0.756179 0.106135
0.0124865 0.5 -0.756179 0.153664
0.0124865 0.5 0.756179 0.106135
0.756813 0.5 -0.0375 0.186999
0.756813 0.5 0.0375 0.182914
0.151149 0.5 -0.75 0.153895
0.151149 0.5 0.75 0.106352
0.756813 0.5 -0.1125 0.190201
0.756813 0.5 0.1125 0.178005
0.624316 0.5 -0.45 0.180381
0.624316 0.5 0.45 0.1401
0.715434 0.5 -0.3 0.189554
0.715434 0.5 0.3 0.159257
0.756813 0.5 0.1875 0.172337
0.756813 0.5 -0.1875 0.192488
0.67013 0.5 -0.4125 0.184893
0.67013 0.5 0.4125 0.146043
0.411736 0.5 -0.675 0.162477
0.411736 0.5 0.675 0.11397
0.467897 0.5 0.6375 0.118115
0.467897 0.5 -0.6375 0.166064
0.075776 0.5 -0.7875 0.152975
0.075776 0.5 0.7875 0.103948
0.350249 0.5 -0.7125 0.158913
0.350249 0.5 0.7125 0.110044
0.523432 0.5 -0.6 0.170288
0.523432 0.5 0.6 0.122843
0.797732 0.5 2.68882e-17 0.189603
0.756813 0.5 -0.2625 0.193862
0.756814 0.5 0.2625 0.165982
0.797732 0.5 0.0736268 0.184669
0.797732 0.5 -0.075 0.193415
0.288069 0.5 -0.75 0.156006
0.288069 0.5 0.75 0.106679
0.574156 0.5 -0.5625 0.174509
0.574157 0.5 0.5625 0.127802
0.715434 0.5 -0.375 0.18966
0.715434 0.5 0.375 0.152419
0.797732 0.5 -0.15 0.196263
0.797732 0.5 0.15 0.179306
0.624316 0.5 -0.525 0.179235
0.624316 0.5 0.525 0.133275
0.219992 0.5 -0.7875 0.15313
0.219992 0.5 0.7875 0.103487
0 0.5 -0.818821 0.152139
0 0.5 0.818821 0.101741
0.0124865 0.5 0.818821 0.101741
0.0124865 0.5 -0.818821 0.152139
0 0.5 -0.825 0.151974
0 0.5 0.825 0.101305
0.756813 0.5 0.3375 0.159038
0.756814 0.5 -0.3375 0.194331
0.67013 0.5 -0.4875 0.183942
0.67013 0.5 0.4875 0.139003
0.797732 0.5 -0.225 0.198129
0.797732 0.5 0.225 0.172966
0 0.5 -0.831179 0.151811
0 0.5 0.831179 0.10087
0.0124865 0.5 -0.831179 0.151811
0.0124865 0.5 0.831179 0.10087
0.835106 0.5 0.0375 0.191833
0.835106 0.5 -0.0375 0.19631
0.151149 0.5 -0.825 0.152041
0.151149 0.5 0.825 0.101049
0.835106 0.5 0.1125 0.186419
0.835106 0.5 -0.1125 0.199782
0.715434 0.5 -0.45 0.188952
0.715434 0.5 0.45 0.145168
0.797732 0.5 -0.3 0.199026
0.797732 0.5 0.3 0.165949
0.467897 0.5 0.7125 0.111893
0.467897 0.5 -0.7125 0.164098
0.523432 0.5 -0.675 0.168362
0.523432 0.5 0.675 0.116352
0.411736 0.5 -0.75 0.160479
0.411736 0.5 0.75 0.107993
0.835106 0.5 -0.1875 0.202202
0.835106 0.5 0.1875 0.180149
0.574156 0.5 -0.6375 0.172655
0.574157 0.5 0.6375 0.121053
0.350249 0.5 -0.7875 0.156908
0.350249 0.5 0.7875 0.104321
0.756813 0.5 -0.4125 0.193917
0.756814 0.5 0.4125 0.151609
0.075776 0.5 -0.8625 0.150988
0.075776 0.5 0.8625 0.0986726
0.624316 0.5 0.6 0.126245
0.624316 0.5 -0.6 0.177469
0.872064 0.5 5.91974e-17 0.198827
0.870122 0.5 0.075 0.19313
0.288069 0.5 -0.825 0.153974
0.288069 0.5 0.825 0.101143
0.67013 0.5 -0.5625 0.182305
0.67013 0.5 0.5625 0.131708
0.872064 0.5 -0.075 0.20298
0.835106 0.5 -0.2625 0.203582
0.835106 0.5 0.2625 0.17311
0.797732 0.5 -0.375 0.198973
0.797732 0.5 0.375 0.158367
0.872064 0.5 0.14794 0.187498
0.872064 0.5 -0.15 0.20603
0.715434 0.5 -0.525 0.18748
0.715434 0.5 0.525 0.137603
0.219992 0.5 0.8625 0.0981423
0.219993 0.5 -0.8625 0.151089
0 0.5 -0.893821 0.150032
0 0.5 0.893821 0.0964738
0.0124865 0.5 -0.893821 0.150032
0.0124865 0.5 0.893821 0.0964738
0 0.5 -0.9 0.149843
0 0.5 0.9 0.096039
0.756813 0.5 -0.4875 0.192666
0.756813 0.5 0.4875 0.143798
0.872064 0.5 -0.225 0.207956
0.872064 0.5 0.225 0.180493
0.835106 0.5 -0.3375 0.20395
0.835106 0.5 0.3375 0.16541
0 0.5 0.906179 0.0956054
0 0.5 -0.906179 0.149656
0.0124865 0.5 -0.906179 0.149656
0.0124865 0.5 0.906179 0.0956054
0.90582 0.5 -0.0375 0.205867
0.90582 0.5 0.0375 0.200975
0.151149 0.5 -0.9 0.149882
0.151149 0.5 0.9 0.0957478
0.90582 0.5 -0.1125 0.209625
0.905821 0.5 0.1125 0.195028
0.523432 0.5 -0.75 0.165981
0.523432 0.5 0.75 0.109803
0.574156 0.5 -0.7125 0.170298
0.574156 0.5 0.7125 0.114219
0.797732 0.5 -0.45 0.198003
0.797732 0.5 0.45 0.150335
0.467897 0.5 0.7875 0.105636
0.467897 0.5 -0.7875 0.161722
0.624316 0.5 -0.675 0.175141
0.624316 0.5 0.675 0.119096
0.411736 0.5 -0.825 0.158108
0.411736 0.5 0.825 0.102001
0.872064 0.5 0.3 0.172733
0.872064 0.5 -0.3 0.2088
0.67013 0.5 -0.6375 0.180042
0.67013 0.5 0.6375 0.124255
0.90582 0.5 0.1875 0.188114
0.905821 0.5 -0.1875 0.212167
0.350249 0.5 -0.8625 0.154563
0.350249 0.5 0.8625 0.0985977
0.835106 0.5 -0.4125 0.203321
0.835106 0.5 0.4125 0.157186
0.715434 0.5 -0.6 0.185309
0.715434 0.5 0.6 0.129832
0.939201 0.5 2.75387e-17 0.208025
0.075776 0.5 0.9375 0.093416
0.075776 0.5 -0.9375 0.148713
0.939111 0.5 0.075 0.20182
0.939201 0.5 -0.075 0.212559
0.756813 0.5 0.5625 0.135723
0.756814 0.5 -0.5625 0.190633
0.90582 0.5 0.2625 0.180342
0.905821 0.5 -0.2625 0.213527
0.288069 0.5 -0.9 0.151629
0.288069 0.5 0.9 0.0956201
0.872064 0.5 -0.375 0.208585
0.872064 0.5 0.375 0.164347
0.939201 0.5 0.148627 0.19544
0.939201 0.5 -0.15 0.215841
0.797732 0.5 -0.525 0.196168
0.797732 0.5 0.525 0.141969
0.219992 0.5 0.9375 0.0928165
0.219992 0.5 -0.9375 0.148757
0.939201 0.5 -0.225 0.217828
0.939201 0.5 0.225 0.187867
0.905821 0.5 -0.3375 0.213799
0.90582 0.5 0.3375 0.17184
0.835106 0.5 -0.4875 0.201746
0.835106 0.5 0.4875 0.148555
0 0.5 0.968821 0.0912404
0 0.5 -0.968821 0.147652
0.0124865 0.5 -0.968821 0.147652
0.0124865 0.5 0.968821 0.0912404
0.969689 0.5 -0.0375 0.215175
0.969689 0.5 0.0375 0.209813
0.574156 0.5 -0.7875 0.167497
0.574156 0.5 0.7875 0.107369
0 0.5 -0.975 0.147442
0 0.5 0.975 0.0908104
0.624316 0.5 -0.75 0.172317
0.624316 0.5 0.75 0.111907
0.969689 0.5 -0.1125 0.219287
0.96969 0.5 0.1125 0.20328
0.523432 0.5 -0.825 0.163201
0.523432 0.5 0.825 0.103261
0.67013 0.5 0.7125 0.11673
0.67013 0.5 -0.7125 0.177226
0 0.5 -0.981179 0.147234
0 0.5 0.981179 0.0903814
0.467897 0.5 0.8625 0.0994018
0.467897 0.5 -0.8625 0.158985
0.0124865 0.5 -0.981179 0.147234
0.0124865 0.5 0.981179 0.0903814
0.872064 0.5 -0.45 0.207332
0.872064 0.5 0.45 0.155476
0.715434 0.5 -0.675 0.182517
0.715434 0.5 0.675 0.121953
0.939201 0.5 -0.3 0.218627
0.939201 0.5 0.3 0.179322
0.151149 0.5 0.975 0.0904804
0.151149 0.5 -0.975 0.147451
0.969689 0.5 -0.1875 0.221996
0.969689 0.5 0.1875 0.195676
0.756813 0.5 -0.6375 0.187904
0.756813 0.5 0.6375 0.127495
0.411736 0.5 -0.9 0.155409
0.411736 0.5 0.9 0.0960475
0.90582 0.5 -0.4125 0.212935
0.90582 0.5 0.4125 0.162753
0.995005 0.5 0.0749309 0.209465
0.797732 0.5 -0.6 0.193547
0.797732 0.5 0.6 0.133396
1.00005 0.5 -8.47123e-18 0.216968
0.350249 0.5 -0.9375 0.151919
0.350249 0.5 0.9375 0.092923
1.00005 0.5 -0.0749309 0.221893
0.969689 0.5 -0.2625 0.223329
0.969689 0.5 0.2625 0.18713
0.835106 0.5 -0.5625 0.199283
0.835106 0.5 0.5625 0.139642
1.00005 0.5 -0.149862 0.225399
0.939201 0.5 -0.375 0.218267
0.939201 0.5 0.375 0.170092
1.00029 0.5 0.148988 0.203168
0.075776 0.5 -1.0125 0.146185
0.075776 0.5 1.0125 0.0882148
0.288069 0.5 0.975 0.0901479
0.288069 0.5 -0.975 0.149009
0.872064 0.5 -0.525 0.205098
0.872064 0.5 0.525 0.146255
1.00005 0.5 0.224793 0.194911
1.00005 0.5 -0.224793 0.227382
0.969689 0.5 0.3375 0.177794
0.96969 0.5 -0.3375 0.223561
1.0271 0.5 -0.0368226 0.224356
1.0271 0.5 0.0368226 0.218615
0.90582 0.5 0.4875 0.153244
0.905821 0.5 -0.4875 0.211
1.0271 0.5 -0.110468 0.228747
1.0271 0.5 0.110468 0.210326
0.67013 0.5 0.7875 0.109218
0.67013 0.5 -0.7875 0.173929
0.624316 0.5 0.825 0.104753
0.624316 0.5 -0.825 0.169066
0.219993 0.5 -1.0125 0.14617
0.219993 0.5 1.0125 0.0875345
0.574156 0.5 -0.8625 0.164315
0.574156 0.5 0.8625 0.100572
0.715434 0.5 -0.75 0.179185
0.715434 0.5 0.75 0.114057
0.756813 0.5 0.7125 0.119217
0.756814 0.5 -0.7125 0.184567
0.523432 0.5 -0.9 0.160078
0.523432 0.5 0.9 0.0967861
0.939201 0.5 -0.45 0.216727
0.939201 0.5 0.45 0.160343
1.04168 0.5 0 0.224171
1.0271 0.5 -0.184113 0.231543
1.0271 0.5 0.184113 0.203389
0 0.5 -1.04382 0.145032
0 0.5 1.04382 0.0860752
0.0124865 0.5 -1.04382 0.145032
0.0124865 0.5 1.04382 0.0860752
1.00005 0.5 -0.299723 0.228114
1.00005 0.5 0.299723 0.185534
1.04168 0.5 -0.0729162 0.229317
1.04168 0.5 0.0729162 0.217719
0.797732 0.5 -0.675 0.190239
0.797732 0.5 0.675 0.124739
0.467897 0.5 0.9375 0.0932501
0.467897 0.5 -0.9375 0.155938
0 0.5 -1.05 0.144803
0 0.5 1.05 0.0856523
0.835106 0.5 -0.6375 0.196043
0.835106 0.5 0.6375 0.130602
1.04168 0.5 -0.145832 0.232999
1.04168 0.5 0.145832 0.21003
0.969689 0.5 -0.4125 0.222485
0.96969 0.5 0.4125 0.167829
0 0.5 -1.05618 0.144577
0 0.5 1.05618 0.0852303
0.0124865 0.5 -1.05618 0.144577
0.0124865 0.5 1.05618 0.0852303
1.05695 0.5 -0.0360764 0.229774
1.05695 0.5 0.0360764 0.223913
0.411736 0.5 -0.975 0.152429
0.411736 0.5 0.975 0.0901853
0.872064 0.5 -0.6 0.201978
0.872064 0.5 0.6 0.13683
1.0271 0.5 -0.257759 0.232767
1.0271 0.5 0.257759 0.194158
0.151149 0.5 -1.05 0.144782
0.151149 0.5 1.05 0.0852822
1.05695 0.5 0.108229 0.217094
1.05695 0.5 -0.108229 0.234321
1.04168 0.5 -0.218749 0.23503
1.04168 0.5 0.218749 0.201234
0.90582 0.5 -0.5625 0.208053
0.905821 0.5 0.5625 0.143445
1.00005 0.5 -0.374654 0.227613
1.00005 0.5 0.374654 0.175409
0.350249 0.5 1.0125 0.0873364
0.350249 0.5 -1.0125 0.149019
1.05695 0.5 -0.180382 0.237262
1.05695 0.5 0.180382 0.20842
1.07319 0.5 0.0709442 0.221804
0.939201 0.5 -0.525 0.214079
0.939201 0.5 0.525 0.150232
1.0271 0.5 -0.331404 0.232979
1.0271 0.5 0.331404 0.184062
1.08112 0.5 3.23815e-17 0.231329
1.04168 0.5 -0.291665 0.235758
1.04168 0.5 0.291665 0.191488
1.08112 0.5 -0.0709442 0.236664
0.969689 0.5 -0.4875 0.220208
0.96969 0.5 0.4875 0.157421
1.05695 0.5 0.252535 0.199048
1.05695 0.5 -0.252535 0.238494
0.288069 0.5 -1.05 0.146151
0.288069 0.5 1.05 0.0847588
0.075776 0.5 -1.0875 0.143435
0.075776 0.5 1.0875 0.0830993
1.08112 0.5 -0.141888 0.240549
1.08145 0.5 0.140165 0.216419
0.715434 0.5 0.825 0.10623
0.715434 0.5 -0.825 0.175398
0.756813 0.5 0.7875 0.110982
0.756814 0.5 -0.7875 0.180713
0.67013 0.5 -0.8625 0.170231
0.67013 0.5 0.8625 0.101793
0.797732 0.5 -0.75 0.186345
0.797732 0.5 0.75 0.116098
0.624316 0.5 -0.9 0.165458
0.624316 0.5 0.9 0.0977016
1.00005 0.5 -0.449585 0.225758
1.00005 0.5 0.449585 0.164724
0.835106 0.5 -0.7125 0.192138
0.835106 0.5 0.7125 0.121548
0.574156 0.5 -0.9375 0.160813
0.574157 0.5 0.9375 0.0938873
1.10076 0.5 -0.0349809 0.238052
1.10076 0.5 0.0349809 0.231964
1.08112 0.5 -0.212832 0.242723
1.08112 0.5 0.212832 0.2078
0.872064 0.5 -0.675 0.198105
0.872064 0.5 0.675 0.127345
1.04168 0.5 -0.364581 0.235283
1.04168 0.5 0.364581 0.180964
1.0271 0.5 0.405049 0.173285
1.0271 0.5 -0.405049 0.231735
1.05695 0.5 -0.324688 0.23875
1.05695 0.5 0.324688 0.188805
1.10076 0.5 -0.104943 0.242842
1.10076 0.5 0.104943 0.224562
0.523432 0.5 0.975 0.0904393
0.523432 0.5 -0.975 0.156668
0.90582 0.5 0.6375 0.133528
0.905821 0.5 -0.6375 0.204245
0.219992 0.5 1.0875 0.0823445
0.219992 0.5 -1.0875 0.143362
1.11376 0.5 3.81639e-17 0.237409
0.939201 0.5 0.6 0.139937
0.939201 0.5 -0.6 0.210433
1.10076 0.5 -0.174905 0.246042
1.10076 0.5 0.174905 0.215963
0.467897 0.5 -1.0125 0.152632
0.467897 0.5 1.0125 0.0872401
1.11376 0.5 -0.0693118 0.24292
1.11376 0.5 0.0693118 0.230582
1.08112 0.5 0.283777 0.197837
1.08112 0.5 -0.283777 0.243508
0 0.5 -1.11882 0.142203
0 0.5 1.11882 0.0810102
0.0124865 0.5 -1.11882 0.142203
0.0124865 0.5 1.11882 0.0810102
0.969689 0.5 -0.5625 0.216789
0.969689 0.5 0.5625 0.146723
1.11376 0.5 0.138624 0.221784
1.11376 0.5 -0.138624 0.246983
0 0.5 -1.125 0.141959
0 0.5 1.125 0.0805973
1.10076 0.5 0.244866 0.206318
1.10076 0.5 -0.244866 0.247365
0.411736 0.5 -1.05 0.149212
0.411736 0.5 1.05 0.0844481
1.05695 0.5 -0.396841 0.237565
1.05695 0.5 0.396841 0.17787
1.00005 0.5 -0.524516 0.222641
1.00005 0.5 0.524516 0.153669
1.04168 0.5 -0.437497 0.233386
1.04168 0.5 0.437497 0.169855
0 0.5 -1.13118 0.141717
0 0.5 1.13118 0.0801852
0.0124865 0.5 -1.13118 0.141717
0.0124865 0.5 1.13118 0.0801852
1.11376 0.5 -0.207935 0.249293
1.11376 0.5 0.207935 0.213266
1.0271 0.5 -0.478694 0.229147
1.0271 0.5 0.478694 0.162032
0.151149 0.5 -1.125 0.141908
0.151149 0.5 1.125 0.0801888
1.08112 0.5 -0.354722 0.243095
1.08112 0.5 0.354722 0.18708
1.13882 0.5 -0.0340295 0.245306
1.13882 0.5 0.0340295 0.238995
0.350249 0.5 -1.0875 0.145901
0.350249 0.5 1.0875 0.0818566
1.13882 0.5 -0.102088 0.250282
1.13882 0.5 0.102088 0.231248
1.10076 0.5 -0.314829 0.247688
1.10076 0.5 0.314829 0.195783
0.756813 0.5 -0.8625 0.176438
0.756814 0.5 0.8625 0.102878
0.797732 0.5 -0.825 0.181967
0.797732 0.5 0.825 0.107568
1.11376 0.5 -0.277247 0.25014
1.11376 0.5 0.277247 0.203066
0.835106 0.5 0.7875 0.112585
0.835106 0.5 -0.7875 0.18768
0.715434 0.5 -0.9 0.17124
0.715434 0.5 0.9 0.0985499
0.872064 0.5 -0.75 0.193599
0.872064 0.5 0.75 0.11791
1.13882 0.5 0.170147 0.222469
1.13882 0.5 -0.170147 0.253657
0.67013 0.5 -0.9375 0.166204
0.67013 0.5 0.9375 0.0945243
0.905821 0.5 -0.7125 0.199724
0.905821 0.5 0.7125 0.123632
1.05695 0.5 0.468994 0.166447
1.05695 0.5 -0.468994 0.235012
0.939201 0.5 -0.675 0.205959
0.939201 0.5 0.675 0.129649
0.624316 0.5 0.975 0.090815
0.624316 0.5 -0.975 0.161557
1.04168 0.5 -0.510414 0.230179
1.04168 0.5 0.510414 0.158364
0.969689 0.5 -0.6375 0.212396
0.96969 0.5 0.6375 0.135982
0.288069 0.5 -1.125 0.143091
0.288069 0.5 1.125 0.0794855
1.16179 0.5 5.78241e-19 0.246896
1.08112 0.5 0.425666 0.175722
1.08112 0.5 -0.425666 0.241261
1.13882 0.5 -0.238206 0.255117
1.13882 0.5 0.238206 0.212525
1.16179 0.5 0.0669104 0.240084
1.16179 0.5 -0.0669104 0.25268
0.574156 0.5 -1.0125 0.157051
0.574156 0.5 1.0125 0.0873739
0.075776 0.5 -1.1625 0.140496
0.075776 0.5 1.1625 0.0781043
1.00005 0.5 -0.599447 0.218399
1.00005 0.5 0.599447 0.142439
1.10076 0.5 0.384791 0.184536
1.10076 0.5 -0.384791 0.246614
1.0271 0.5 -0.55234 0.225268
1.0271 0.5 0.55234 0.150501
1.11376 0.5 -0.346559 0.249784
1.11376 0.5 0.346559 0.192057
1.16179 0.5 -0.133821 0.256998
1.16179 0.5 0.133821 0.231275
0.523432 0.5 -1.05 0.153023
0.523432 0.5 1.05 0.0842667
1.17463 0.5 -0.0331343 0.252569
1.17463 0.5 0.0331343 0.246038
1.17463 0.5 -0.0994029 0.257759
1.17463 0.5 0.0994029 0.238131
1.16179 0.5 -0.200731 0.259496
1.16179 0.5 0.200731 0.221729
1.13882 0.5 -0.306265 0.255473
1.13882 0.5 0.306265 0.201666
0.219992 0.5 -1.1625 0.140365
0.219992 0.5 1.1625 0.0772757
0.467897 0.5 -1.0875 0.149112
0.467897 0.5 1.0875 0.0813907
1.17463 0.5 0.165672 0.228981
1.17463 0.5 -0.165672 0.261352
1.05695 0.5 -0.541147 0.231205
1.05695 0.5 0.541147 0.154733
1.18772 0.5 -5.78241e-19 0.252033
1.11376 0.5 -0.41587 0.247985
1.11376 0.5 0.41587 0.180429
1.18772 0.5 -0.065614 0.257975
1.18772 0.5 0.065614 0.244199
1.08112 0.5 -0.49661 0.238097
1.08112 0.5 0.49661 0.163963
1.10076 0.5 -0.454752 0.244085
1.10076 0.5 0.454752 0.17278
1.18534 0.5 0.118202 0.236099
1.16179 0.5 -0.267642 0.260439
1.16179 0.5 0.267642 0.211124
0 0.5 -1.19382 0.139198
0 0.5 1.19382 0.0760755
0.0124865 0.5 1.19382 0.0760755
0.0124865 0.5 -1.19382 0.139198
1.04168 0.5 -0.58333 0.225748
1.04168 0.5 0.58333 0.146683
1.18772 0.5 -0.131228 0.262449
1.17463 0.5 -0.23194 0.262877
1.17463 0.5 0.23194 0.218739
0.411736 0.5 -1.125 0.1458
0.411736 0.5 1.125 0.0788604
1.13882 0.5 -0.374324 0.254452
1.13882 0.5 0.374324 0.190071
0 0.5 -1.2 0.138941
0 0.5 1.2 0.0756746
0.905821 0.5 0.7875 0.113835
0.905821 0.5 -0.7875 0.194606
0.872064 0.5 -0.825 0.188585
0.872064 0.5 0.825 0.108633
0.835106 0.5 0.8625 0.103796
0.835106 0.5 -0.8625 0.182781
0.939201 0.5 -0.75 0.200814
0.939201 0.5 0.75 0.119478
0.797732 0.5 -0.9 0.177206
0.797732 0.5 0.9 0.0992353
1.0271 0.5 0.625985 0.138867
1.0271 0.5 -0.625985 0.220326
0.969689 0.5 0.7125 0.125411
0.96969 0.5 -0.7125 0.207242
1.18772 0.5 -0.196842 0.265074
1.18772 0.5 0.196842 0.226299
0.756814 0.5 -0.9375 0.171831
0.756814 0.5 0.9375 0.0949869
0 0.5 1.20618 0.0752743
0 0.5 -1.20618 0.138686
1.00005 0.5 -0.674378 0.21327
1.00005 0.5 0.674378 0.131197
0.0124865 0.5 1.20618 0.0752743
0.0124865 0.5 -1.20618 0.138686
1.16179 0.5 -0.334552 0.260161
1.16179 0.5 0.334552 0.199676
0.715434 0.5 0.975 0.0910862
0.715434 0.5 -0.975 0.16679
0.151149 0.5 -1.2 0.13886
0.151149 0.5 1.2 0.0752291
1.20942 0.5 0.0322645 0.253221
1.20942 0.5 -0.0322645 0.260067
1.17463 0.5 -0.298209 0.263304
1.17463 0.5 0.298209 0.207559
1.20942 0.5 -0.0967935 0.265465
1.20942 0.5 0.0967935 0.245155
0.350249 0.5 -1.1625 0.142603
0.350249 0.5 1.1625 0.076519
0.67013 0.5 1.0125 0.0874721
0.67013 0.5 -1.0125 0.16192
1.11376 0.5 0.485183 0.168382
1.11376 0.5 -0.485183 0.244816
1.18772 0.5 0.262456 0.215476
1.18772 0.5 -0.262456 0.266086
1.10076 0.5 -0.524714 0.240306
1.10076 0.5 0.524714 0.16071
1.20942 0.5 -0.161322 0.269276
1.20942 0.5 0.161322 0.235739
1.08112 0.5 -0.567554 0.233672
1.08112 0.5 0.567554 0.152003
0.624316 0.5 -1.05 0.157429
0.624316 0.5 1.05 0.0841489
1.13882 0.5 -0.442383 0.251903
1.13882 0.5 0.442383 0.177942
1.05695 0.5 0.6133 0.142923
1.05695 0.5 -0.6133 0.226182
1.16179 0.5 -0.401463 0.258391
1.16179 0.5 0.401463 0.187575
0.574156 0.5 -1.0875 0.153084
0.574156 0.5 1.0875 0.0810816
1.17463 0.5 0.364477 0.195618
1.17463 0.5 -0.364477 0.262378
1.20942 0.5 -0.225851 0.270941
1.20942 0.5 0.225851 0.225214
1.23036 0.5 -1.32995e-17 0.261499
1.2294 0.5 0.0634819 0.252691
1.04168 0.5 -0.656246 0.220364
1.04168 0.5 0.656246 0.134975
1.23036 0.5 -0.0634819 0.267706
1.18772 0.5 0.32807 0.203795
1.18772 0.5 -0.32807 0.265871
0.288069 0.5 -1.2 0.139863
0.288069 0.5 1.2 0.0743626
1.23036 0.5 -0.126964 0.272443
1.23036 0.5 0.126964 0.244962
0.075776 0.5 -1.2375 0.137399
0.075776 0.5 1.2375 0.0732532
0.523432 0.5 -1.125 0.149194
0.523432 0.5 1.125 0.0782966
1.0271 0.5 -0.69963 0.214603
1.0271 0.5 0.69963 0.127207
1.24274 0.5 0.0314313 0.260615
1.24274 0.5 -0.0314313 0.267602
1.20942 0.5 0.29038 0.213727
1.20942 0.5 -0.29038 0.271432
1.11376 0.5 -0.554494 0.240364
1.11376 0.5 0.554494 0.156119
1.23036 0.5 -0.190445 0.27528
1.23036 0.5 0.190445 0.234824
1.24274 0.5 -0.0942942 0.273214
1.24274 0.5 0.0942942 0.252207
1.13882 0.5 0.510442 0.16548
1.13882 0.5 -0.510442 0.248067
0.969689 0.5 -0.7875 0.201474
0.969689 0.5 0.7875 0.115012
1.00005 0.5 -0.749309 0.20745
1.00005 0.5 0.749309 0.120077
0.939201 0.5 -0.825 0.195141
0.939201 0.5 0.825 0.109487
0.90582 0.5 0.8625 0.104306
0.90582 0.5 -0.8625 0.189051
1.17463 0.5 -0.430746 0.259806
1.17463 0.5 0.430746 0.183119
1.10076 0.5 -0.594676 0.235236
1.10076 0.5 0.594676 0.148533
1.18772 0.5 -0.393684 0.264144
1.18772 0.5 0.393684 0.191445
1.24274 0.5 -0.157157 0.277268
1.24274 0.5 0.157157 0.242524
1.16179 0.5 -0.468373 0.255181
1.16179 0.5 0.468373 0.175026
0.467897 0.5 -1.1625 0.145424
0.467897 0.5 1.1625 0.0757266
0.872064 0.5 -0.9 0.183189
0.872064 0.5 0.9 0.0996286
1.25401 0.5 2.08167e-17 0.266536
0.835106 0.5 0.9375 0.0952752
0.835106 0.5 -0.9375 0.177544
1.25401 0.5 -0.0622994 0.272901
1.25401 0.5 0.0622994 0.25843
1.08112 0.5 -0.638498 0.228209
1.08112 0.5 0.638498 0.140046
1.23036 0.5 -0.253927 0.276413
1.23036 0.5 0.253927 0.223635
0.219992 0.5 1.2375 0.0723553
0.219992 0.5 -1.2375 0.137211
1.25309 0.5 0.121964 0.249643
1.05695 0.5 0.685452 0.131207
1.05695 0.5 -0.685452 0.220383
0.797732 0.5 0.975 0.091175
0.797732 0.5 -0.975 0.17216
1.25401 0.5 -0.124599 0.277801
1.20942 0.5 -0.354909 0.270612
1.20942 0.5 0.354909 0.201455
1.24274 0.5 -0.220019 0.279074
1.24274 0.5 0.220019 0.231712
0.756814 0.5 -1.0125 0.166977
0.756813 0.5 1.0125 0.0873703
1.25401 0.5 -0.186898 0.280786
1.25401 0.5 0.186898 0.239312
0.411736 0.5 -1.2 0.142234
0.411736 0.5 1.2 0.0734594
0 0.5 -1.26882 0.136047
0 0.5 1.26882 0.0712936
0.0124865 0.5 1.26882 0.0712936
0.0124865 0.5 -1.26882 0.136047
0.715434 0.5 -1.05 0.162124
0.715434 0.5 1.05 0.0838961
1.23036 0.5 -0.31741 0.276301
1.23036 0.5 0.31741 0.211555
1.04168 0.5 -0.729162 0.214266
1.04168 0.5 0.729162 0.123405
1.18772 0.5 -0.459298 0.260939
1.18772 0.5 0.459298 0.17863
1.24274 0.5 -0.282882 0.279641
1.24274 0.5 0.282882 0.219915
0 0.5 -1.275 0.135779
0 0.5 1.275 0.0709064
1.27472 0.5 -0.0306319 0.275161
1.27472 0.5 0.0306319 0.267941
1.17463 0.5 0.497015 0.170267
1.17463 0.5 -0.497015 0.255964
1.11376 0.5 -0.623806 0.234829
1.11376 0.5 0.623806 0.143838
1.13882 0.5 -0.578501 0.24291
1.13882 0.5 0.578501 0.152892
0.67013 0.5 -1.0875 0.157445
0.67013 0.5 1.0875 0.080691
1.27472 0.5 -0.0918959 0.280979
1.27472 0.5 0.0918959 0.257938
1.25401 0.5 -0.249197 0.282006
1.25401 0.5 0.249197 0.227916
1.16179 0.5 -0.535284 0.250631
1.16179 0.5 0.535284 0.162238
1.20942 0.5 -0.419438 0.268058
1.20942 0.5 0.419438 0.188598
0 0.5 -1.28118 0.135513
0 0.5 1.28118 0.0705197
0.0124865 0.5 1.28118 0.0705197
0.0124865 0.5 -1.28118 0.135513
1.27472 0.5 0.15316 0.249345
1.27472 0.5 -0.15316 0.285243
0.151149 0.5 -1.275 0.135669
0.151149 0.5 1.275 0.0704309
1.0271 0.5 0.773275 0.115757
1.0271 0.5 -0.773275 0.208254
1.10076 0.5 0.664638 0.136456
1.10076 0.5 -0.664638 0.229329
0.350249 0.5 -1.2375 0.139161
0.350249 0.5 1.2375 0.0713691
0.624316 0.5 -1.125 0.153131
0.624316 0.5 1.125 0.077742
1.23036 0.5 0.380892 0.198771
1.23036 0.5 -0.380892 0.274644
1.24274 0.5 -0.345745 0.278944
1.24274 0.5 0.345745 0.207308
1.2906 0.5 0 0.275408
1.2906 0.5 -0.0604698 0.282047
1.2906 0.5 0.0604698 0.267342
1.25401 0.5 -0.311497 0.281969
1.25401 0.5 0.311497 0.215613
1.27472 0.5 -0.214423 0.287259
1.27472 0.5 0.214423 0.238257
1.08112 0.5 0.709442 0.128292
1.08112 0.5 -0.709442 0.221983
1.00005 0.5 -0.824239 0.201096
1.00005 0.5 0.824239 0.10933
1.2906 0.5 -0.12094 0.287232
1.2906 0.5 0.12094 0.257903
0.574156 0.5 -1.1625 0.148966
0.574156 0.5 1.1625 0.0750292
0.969689 0.5 -0.8625 0.195244
0.96969 0.5 0.8625 0.104792
1.18772 0.5 0.524912 0.165565
1.18772 0.5 -0.524912 0.256363
1.05695 0.5 -0.757605 0.213902
1.05695 0.5 0.757605 0.119782
0.939201 0.5 -0.9 0.189085
0.939201 0.5 0.9 0.099807
1.30091 0.5 -0.0299772 0.2816
1.30091 0.5 0.0299772 0.274176
1.20942 0.5 -0.483967 0.264211
1.20942 0.5 0.483967 0.175366
1.17463 0.5 -0.563284 0.250684
1.17463 0.5 0.563284 0.157284
1.2906 0.5 -0.181409 0.290484
1.2906 0.5 0.181409 0.247239
0.90582 0.5 0.9375 0.095152
0.90582 0.5 -0.9375 0.183179
1.30091 0.5 -0.0899316 0.287602
1.30091 0.5 0.0899316 0.262511
1.27472 0.5 0.275687 0.22616
1.27472 0.5 -0.275687 0.287909
0.288069 0.5 -1.275 0.136502