# UMean  POINT_DATA 63840
# x  y  z  UMean_x  UMean_y  UMean_z
0 0.5 3.39583e-17 0.809017 0 0.587785
0 0.5 -0.00617931 0.809017 0 0.587785
0 0.5 0.00617931 0.809017 0 0.587785
0.0124865 0.5 -0.00617931 0.808991 0.000870973 0.588279
0.0124865 0.5 0.00617931 0.808993 0.000863713 0.588388
0 0.5 -0.0688207 0.809017 0 0.587785
0 0.5 0.0688207 0.809017 0 0.587785
0.0124865 0.5 -0.0688207 0.808991 0.000870973 0.588279
0.0124865 0.5 0.0688207 0.808993 0.000863713 0.588388
0 0.5 -0.075 0.809017 0 0.587785
0 0.5 0.075 0.809017 0 0.587785
0 0.5 -0.0811793 0.809017 0 0.587785
0 0.5 0.0811793 0.809017 0 0.587785
0.0124865 0.5 -0.0811793 0.808992 0.000874093 0.588167
0.0124865 0.5 0.0811793 0.808996 0.000852547 0.588492
0.075776 0.5 -0.0375 0.808839 0.00527967 0.590774
0.075776 0.5 0.0375 0.808847 0.0052357 0.591431
0.075776 0.5 -0.1125 0.80884 0.00529875 0.590099
0.075776 0.5 0.1125 0.808864 0.00516845 0.59206
0 0.5 -0.143821 0.809017 0 0.587785
0 0.5 0.143821 0.809017 0 0.587785
0.0124865 0.5 -0.143821 0.808992 0.000874093 0.588167
0.0124865 0.5 0.143821 0.808996 0.000852547 0.588492
0 0.5 -0.15 0.809017 0 0.587785
0 0.5 0.15 0.809017 0 0.587785
0.151149 0.5 -0.00137318 0.807747 0.00879129 0.593253
0 0.5 -0.156179 0.809017 0 0.587785
0 0.5 0.156179 0.809017 0 0.587785
0.0124865 0.5 -0.156179 0.808991 0.000872777 0.588054
0.0124865 0.5 0.156179 0.809 0.000838132 0.58859
0.151149 0.5 0.075 0.807792 0.0087489 0.594383
0.151149 0.5 -0.075 0.807703 0.00885455 0.592039
0.075776 0.5 -0.1875 0.808839 0.00529141 0.589417
0.075776 0.5 0.1875 0.808887 0.00508117 0.592651
0.151149 0.5 0.15 0.807867 0.0086446 0.59549
0.151149 0.5 -0.15 0.807689 0.00885799 0.590833
0 0.5 -0.218821 0.809017 0 0.587785
0 0.5 0.218821 0.809017 0 0.587785
0.0124865 0.5 -0.218821 0.808991 0.000872777 0.588054
0.0124865 0.5 0.218821 0.809 0.000838132 0.58859
0.219992 0.5 0.0375 0.806745 0.0121164 0.596042
0.219993 0.5 -0.0375 0.806665 0.0121749 0.594385
0 0.5 -0.225 0.809017 0 0.587785
0 0.5 0.225 0.809017 0 0.587785
0 0.5 -0.231179 0.809017 0 0.587785
0 0.5 0.231179 0.809017 0 0.587785
0.0124865 0.5 -0.231179 0.80899 0.000869615 0.587945
0.0124865 0.5 0.231179 0.809004 0.000820854 0.58868
0.219992 0.5 0.1125 0.806854 0.0120103 0.597655
0.219993 0.5 -0.1125 0.806621 0.0121976 0.592692
0.151149 0.5 -0.225 0.807686 0.00883005 0.589633
0.151149 0.5 0.225 0.807962 0.00850733 0.596533
0.075776 0.5 -0.2625 0.808832 0.00527236 0.588757
0.075776 0.5 0.2625 0.808915 0.00497614 0.593196
0.288069 0.5 -0.00137318 0.804012 0.0154302 0.596796
0.219992 0.5 0.1875 0.806998 0.0118574 0.59919
0.219993 0.5 -0.1875 0.806608 0.0121772 0.590983
0 0.5 0.293821 0.809017 0 0.587785
0 0.5 -0.293821 0.809017 0 0.587785
0.0124865 0.5 -0.293821 0.80899 0.000869615 0.587945
0.0124865 0.5 0.293821 0.809004 0.000820854 0.58868
0.288069 0.5 -0.075 0.803884 0.0154955 0.594526
0.288069 0.5 0.075 0.804156 0.0153611 0.598895
0 0.5 -0.3 0.809017 0 0.587785
0 0.5 0.3 0.809017 0 0.587785
0 0.5 0.306179 0.809017 0 0.587785
0 0.5 -0.306179 0.809017 0 0.587785
0.0124865 0.5 -0.306179 0.80899 0.000864345 0.58783
0.0124865 0.5 0.306179 0.80901 0.000801091 0.588761
0.288069 0.5 -0.15 0.803845 0.0154825 0.592309
0.288069 0.5 0.15 0.804387 0.015209 0.600981
0.151149 0.5 -0.3 0.807696 0.00877665 0.588449
0.151149 0.5 0.3 0.808075 0.00833955 0.597497
0.219992 0.5 -0.2625 0.806616 0.0121141 0.589304
0.219992 0.5 0.2625 0.807174 0.011659 0.600628
0.075776 0.5 0.3375 0.808949 0.00485571 0.593689
0.075776 0.5 -0.3375 0.80883 0.00524039 0.588067
0.350249 0.5 -0.0375 0.801346 0.0185924 0.596804
0.350249 0.5 0.0375 0.801536 0.0185208 0.599505
0.288069 0.5 -0.225 0.803868 0.015415 0.590108
0.288069 0.5 0.225 0.804678 0.0150001 0.602966
0.350249 0.5 0.1125 0.801819 0.0183798 0.602125
0.350249 0.5 -0.1125 0.801249 0.0185983 0.594101
0 0.5 0.368821 0.809017 0 0.587785
0 0.5 -0.368821 0.809017 0 0.587785
0.0124865 0.5 -0.368821 0.80899 0.000864345 0.58783
0.0124865 0.5 0.368821 0.80901 0.000801091 0.588761
0 0.5 -0.375 0.809017 0 0.587785
0 0.5 0.375 0.809017 0 0.587785
0 0.5 -0.381179 0.809017 0 0.587785
0 0.5 0.381179 0.809017 0 0.587785
0.0124865 0.5 -0.381179 0.808991 0.000855566 0.587723
0.0124865 0.5 0.381179 0.809017 0.000779245 0.588833
0.350249 0.5 -0.1875 0.80125 0.0185397 0.591401
0.350249 0.5 0.1875 0.802193 0.0181744 0.604641
0.219992 0.5 -0.3375 0.806656 0.0120182 0.587663
0.219992 0.5 0.3375 0.807376 0.011419 0.601948
0.151149 0.5 -0.375 0.807726 0.0086955 0.587294
0.151149 0.5 0.375 0.808202 0.00814427 0.598369
0.411736 0.5 -0.00137318 0.797642 0.021772 0.599273
0.288069 0.5 -0.3 0.803948 0.0152969 0.587957
0.288069 0.5 0.3 0.805026 0.0147354 0.604819
0.411736 0.5 -0.075 0.797434 0.0218282 0.595933
0.411736 0.5 0.075 0.797915 0.0216832 0.602362
0.075776 0.5 -0.4125 0.808833 0.0051874 0.587419
0.075776 0.5 0.4125 0.808987 0.00472244 0.594126
0.350249 0.5 -0.2625 0.801339 0.0184151 0.58875
0.350249 0.5 0.2625 0.80265 0.0178998 0.607028
0.411736 0.5 -0.15 0.7974 0.0217773 0.592703
0.411736 0.5 0.15 0.798359 0.021487 0.605465
0 0.5 -0.443821 0.809017 0 0.587785
0 0.5 0.443821 0.809017 0 0.587785
0.0124865 0.5 -0.443821 0.808991 0.000855566 0.587723
0.0124865 0.5 0.443821 0.809017 0.000779245 0.588833
0 0.5 -0.45 0.809017 0 0.587785
0 0.5 0.45 0.809017 0 0.587785
0 0.5 -0.456179 0.809017 0 0.587785
0 0.5 0.456179 0.809017 0 0.587785
0.0124865 0.5 -0.456179 0.808994 0.000844018 0.587617
0.0124865 0.5 0.456179 0.809024 0.000755717 0.588895
0.219992 0.5 -0.4125 0.806732 0.0118796 0.586084
0.219993 0.5 0.4125 0.807599 0.0111406 0.603133
0.411736 0.5 -0.225 0.797499 0.0216453 0.589518
0.411736 0.5 0.225 0.798932 0.0212098 0.608437
0.467897 0.5 0.0375 0.79414 0.024805 0.601993
0.467897 0.5 -0.0375 0.793853 0.0248776 0.598259
0.288069 0.5 -0.375 0.804091 0.0151287 0.585883
0.288069 0.5 0.375 0.805424 0.0144189 0.606514
0.151149 0.5 -0.45 0.807782 0.00858543 0.586191
0.151149 0.5 0.45 0.808342 0.00792468 0.599139
0.467897 0.5 -0.1125 0.793744 0.0248518 0.594513
0.467897 0.5 0.1125 0.794608 0.0246343 0.605647
0.350249 0.5 0.3375 0.803187 0.0175602 0.609238
0.350249 0.5 -0.3375 0.801516 0.0182311 0.586177
0.075776 0.5 -0.4875 0.80885 0.00511761 0.58678
0.075776 0.5 0.4875 0.80903 0.0045786 0.594502
0.467897 0.5 -0.1875 0.793808 0.0247294 0.590802
0.467897 0.5 0.1875 0.795247 0.0243695 0.609206
0.411736 0.5 -0.3 0.797728 0.0214358 0.586422
0.411736 0.5 0.3 0.799625 0.020852 0.611229
0 0.5 -0.518821 0.809017 0 0.587785
0 0.5 0.518821 0.809017 0 0.587785
0.0124865 0.5 0.518821 0.809024 0.000755717 0.588895
0.0124865 0.5 -0.518821 0.808994 0.000844018 0.587617
0.523432 0.5 -0.00137318 0.789333 0.0280392 0.60086
0 0.5 -0.525 0.809017 0 0.587785
0 0.5 0.525 0.809017 0 0.587785
0.523432 0.5 -0.075 0.789072 0.0280673 0.596429
0.523432 0.5 0.075 0.789734 0.0279451 0.604968
0 0.5 -0.531179 0.809017 0 0.587785
0 0.5 0.531179 0.809017 0 0.587785
0.0124865 0.5 -0.531179 0.808999 0.000829676 0.58752
0.0124865 0.5 0.531179 0.809032 0.000730723 0.588947
0.288069 0.5 -0.45 0.804299 0.0149132 0.583914
0.288069 0.5 0.45 0.805862 0.014055 0.608031
0.219992 0.5 -0.4875 0.806853 0.0117071 0.584597
0.219993 0.5 0.4875 0.80784 0.0108284 0.604169
0.467897 0.5 -0.2625 0.794044 0.0245118 0.587184
0.467897 0.5 0.2625 0.796049 0.0240105 0.612569
0.350249 0.5 -0.4125 0.801787 0.0179832 0.583731
0.350249 0.5 0.4125 0.803791 0.0171594 0.611249
0.523432 0.5 -0.15 0.789086 0.0279555 0.592167
0.523432 0.5 0.15 0.790406 0.0277122 0.609121
0.151149 0.5 -0.525 0.807862 0.00845112 0.585147
0.151149 0.5 0.525 0.808491 0.00768414 0.599799
0.411736 0.5 -0.375 0.798084 0.0211515 0.583459
0.411736 0.5 0.375 0.800424 0.0204177 0.613805
0.075776 0.5 -0.5625 0.80888 0.00503085 0.586194
0.075776 0.5 0.5625 0.809076 0.00442586 0.594813
0.523432 0.5 -0.225 0.789324 0.0277313 0.587993
0.523432 0.5 0.225 0.791296 0.0273678 0.613115
0.574156 0.5 -0.0375 0.784651 0.0311254 0.598872
0.574156 0.5 0.0375 0.785025 0.031075 0.603684
0.467897 0.5 0.3375 0.797 0.0235588 0.61572
0.467897 0.5 -0.3375 0.794447 0.0242064 0.583696
0.574156 0.5 -0.1125 0.784561 0.0310432 0.594067
0.574156 0.5 0.1125 0.785674 0.0308927 0.608426
0 0.5 -0.593821 0.809017 0 0.587785
0 0.5 0.593821 0.809017 0 0.587785
0.0124865 0.5 -0.593821 0.808999 0.000829676 0.58752
0.0124865 0.5 0.593821 0.809032 0.000730723 0.588947
0.288069 0.5 -0.525 0.804557 0.0146605 0.58206
0.288069 0.5 0.525 0.806331 0.0136494 0.60935
0 0.5 -0.6 0.809017 0 0.587785
0 0.5 0.6 0.809017 0 0.587785
0.350249 0.5 -0.4875 0.802137 0.017688 0.58142
0.350249 0.5 0.4875 0.80445 0.0167039 0.613032
0.523432 0.5 -0.3 0.789779 0.027401 0.583961
0.523432 0.5 0.3 0.792392 0.0269144 0.61689
0.219992 0.5 -0.5625 0.806999 0.0115062 0.58319
0.219992 0.5 0.5625 0.808092 0.0104872 0.605046
0.574156 0.5 -0.1875 0.784746 0.0308305 0.589337
0.574156 0.5 0.1875 0.786592 0.0305806 0.61302
0 0.5 -0.606179 0.809017 0 0.587785
0 0.5 0.606179 0.809017 0 0.587785
0.0124865 0.5 -0.606179 0.809003 0.000813538 0.587431
0.0124865 0.5 0.606179 0.809039 0.00070461 0.588987
0.411736 0.5 -0.45 0.798554 0.020801 0.580661
0.411736 0.5 0.45 0.801315 0.019913 0.616131
0.151149 0.5 -0.6 0.807953 0.00829599 0.584175
0.151149 0.5 0.6 0.808646 0.00742616 0.600345
0.62168 0.5 2.64545e-17 0.779776 0.0341325 0.601729
0.467897 0.5 0.4125 0.79808 0.0230217 0.6186
0.467897 0.5 -0.4125 0.795007 0.0238148 0.580405
0.624316 0.5 0.0729402 0.780006 0.03422 0.60687
0.624316 0.5 -0.075 0.779201 0.0342789 0.596153
0.574156 0.5 -0.2625 0.785202 0.0304924 0.584755
0.574157 0.5 0.2625 0.787774 0.0301432 0.617424
0.075776 0.5 -0.6375 0.808904 0.00493298 0.585651
0.075776 0.5 0.6375 0.809123 0.00426641 0.595059
0.624316 0.5 -0.15 0.779313 0.0340829 0.590846
0.624316 0.5 0.15 0.780914 0.0339649 0.612108
0.523432 0.5 -0.375 0.790436 0.0269713 0.580129
0.523432 0.5 0.375 0.793669 0.0263569 0.620392
0.350249 0.5 -0.5625 0.802536 0.0173541 0.579257
0.350249 0.5 0.5625 0.80515 0.0162008 0.614569
0.624316 0.5 -0.225 0.779757 0.0337427 0.58568
0.624316 0.5 0.225 0.782145 0.0335635 0.617161
0.288069 0.5 0.6 0.806823 0.0132085 0.61046
0.288069 0.5 -0.6 0.804847 0.0143746 0.580334
0.574156 0.5 -0.3375 0.785914 0.0300401 0.580369
0.574156 0.5 0.3375 0.789197 0.0295831 0.62155
0.411736 0.5 -0.525 0.799111 0.020398 0.578041
0.411736 0.5 0.525 0.802278 0.0193452 0.618178
0 0.5 -0.668821 0.809017 0 0.587785
0 0.5 0.668821 0.809017 0 0.587785
0.0124865 0.5 -0.668821 0.809003 0.000813538 0.587431
0.0124865 0.5 0.668821 0.809039 0.00070461 0.588987
0.67013 0.5 0.0375 0.774517 0.0373685 0.604713
0.67013 0.5 -0.0375 0.774083 0.0373781 0.598795
0.219993 0.5 -0.6375 0.807153 0.0112795 0.58189
0.219993 0.5 0.6375 0.808353 0.0101221 0.605759
0 0.5 -0.675 0.809017 0 0.587785
0 0.5 0.675 0.809017 0 0.587785
0.467897 0.5 0.4875 0.799268 0.0224057 0.621179
0.467897 0.5 -0.4875 0.795687 0.0233569 0.577307
0.67013 0.5 -0.1125 0.774057 0.0372184 0.592911
0.67013 0.5 0.1125 0.775352 0.0371893 0.610575
0 0.5 -0.681179 0.809017 0 0.587785
0 0.5 0.681179 0.809017 0 0.587785
0.0124865 0.5 -0.681179 0.809007 0.000796 0.587348
0.0124865 0.5 0.681179 0.809046 0.000677947 0.589016
0.523432 0.5 -0.45 0.791263 0.0264546 0.576532
0.523432 0.5 0.45 0.795101 0.0257033 0.623571
0.151149 0.5 -0.675 0.808048 0.00812404 0.583279
0.151149 0.5 0.675 0.808804 0.00715478 0.600772
0.624316 0.5 -0.3 0.780517 0.0332683 0.580722
0.624316 0.5 0.3 0.783682 0.0330207 0.621959
0.67013 0.5 0.1875 0.776568 0.0368436 0.616274
0.67013 0.5 -0.1875 0.774428 0.0368941 0.587154
0.574156 0.5 -0.4125 0.786848 0.0294799 0.576254
0.574157 0.5 0.4125 0.790824 0.0289095 0.625346
0.708171 0.5 1.88651e-17 0.76939 0.040083 0.602213
0.075776 0.5 -0.7125 0.808929 0.00482628 0.585152
0.075776 0.5 0.7125 0.809168 0.00410314 0.595237
0.715434 0.5 0.0736268 0.769224 0.0404534 0.608342
0.715434 0.5 -0.075 0.768188 0.0404833 0.595247
0.67013 0.5 0.2625 0.778155 0.0363367 0.621734
0.67013 0.5 -0.2625 0.77518 0.036415 0.581608
0.350249 0.5 -0.6375 0.80298 0.0169812 0.57727
0.350249 0.5 0.6375 0.805876 0.0156577 0.615845
0.411736 0.5 -0.6 0.799739 0.0199479 0.575628
0.411736 0.5 0.6 0.803294 0.0187228 0.619925
0.624316 0.5 -0.375 0.781559 0.0326701 0.576038
0.624316 0.5 0.375 0.785493 0.032343 0.626426
0.715434 0.5 -0.15 0.768452 0.0401842 0.588882
0.715434 0.5 0.15 0.770232 0.0402578 0.614559
0.467897 0.5 -0.5625 0.796465 0.0228425 0.574446
0.467897 0.5 0.5625 0.800541 0.02172 0.623424
0.288069 0.5 -0.675 0.805164 0.0140594 0.578753
0.288069 0.5 0.675 0.807329 0.012739 0.611354
0.523432 0.5 -0.525 0.792231 0.0258667 0.573197
0.523432 0.5 0.525 0.796658 0.0249626 0.62639
0 0.5 -0.743821 0.809017 0 0.587785
0 0.5 0.743821 0.809017 0 0.587785
0.0124865 0.5 -0.743821 0.809007 0.000796 0.587348
0.0124865 0.5 0.743821 0.809046 0.000677947 0.589016
0.219992 0.5 0.7125 0.808618 0.0097389 0.606303
0.219992 0.5 -0.7125 0.80732 0.0110321 0.580698
0.715434 0.5 -0.225 0.769169 0.039709 0.582719
0.715434 0.5 0.225 0.771824 0.0398101 0.620715
0 0.5 -0.75 0.809017 0 0.587785
0 0.5 0.75 0.809017 0 0.587785
0.67013 0.5 0.3375 0.780088 0.0356746 0.626881
0.67013 0.5 -0.3375 0.776282 0.0357951 0.57634
0.574156 0.5 -0.4875 0.787962 0.0288331 0.572413
0.574156 0.5 0.4875 0.792623 0.0281311 0.628761
0 0.5 -0.756179 0.809017 0 0.587785
0 0.5 0.756179 0.809017 0 0.587785
0.0124865 0.5 -0.756179 0.809012 0.000777211 0.587274
0.0124865 0.5 0.756179 0.809053 0.000651101 0.589035
0.756813 0.5 -0.0375 0.762535 0.0436312 0.598159
0.756813 0.5 0.0375 0.762998 0.0436786 0.60521
0.151149 0.5 -0.75 0.80815 0.00793782 0.582463
0.151149 0.5 0.75 0.808963 0.00687449 0.60108
0.756813 0.5 -0.1125 0.76262 0.0433771 0.591179
0.756813 0.5 0.1125 0.764006 0.0435168 0.612219
0.624316 0.5 -0.45 0.782842 0.0319637 0.571673
0.624316 0.5 0.45 0.787538 0.0315405 0.630499
0.715434 0.5 -0.3 0.770306 0.0390707 0.576843
0.715434 0.5 0.3 0.773834 0.039185 0.62657
0.756813 0.5 0.1875 0.765534 0.0431487 0.619065
0.756813 0.5 -0.1875 0.763237 0.0429244 0.584387
0.67013 0.5 -0.4125 0.777683 0.0350446 0.571417
0.67013 0.5 0.4125 0.782323 0.0348665 0.631629
0.411736 0.5 -0.675 0.800428 0.0194564 0.573438
0.411736 0.5 0.675 0.804342 0.018055 0.621359
0.467897 0.5 0.6375 0.801871 0.0209744 0.625316
0.467897 0.5 -0.6375 0.797332 0.0222751 0.571844
0.075776 0.5 -0.7875 0.808957 0.00471171 0.5847
0.075776 0.5 0.7875 0.809208 0.0039389 0.59535
0.350249 0.5 -0.7125 0.803463 0.0165772 0.575465
0.350249 0.5 0.7125 0.806617 0.0150834 0.616852
0.523432 0.5 -0.6 0.793318 0.0252161 0.57016
0.523432 0.5 0.6 0.798309 0.0241454 0.628817
0.797732 0.5 2.68882e-17 0.756503 0.0468571 0.601432
0.756813 0.5 -0.2625 0.764352 0.0422867 0.57788
0.756814 0.5 0.2625 0.767551 0.042581 0.625629
0.797732 0.5 0.0736268 0.757357 0.0467961 0.609313
0.797732 0.5 -0.075 0.756358 0.0466629 0.593837
0.288069 0.5 -0.75 0.805505 0.0137195 0.577322
0.288069 0.5 0.75 0.80784 0.0122482 0.612027
0.574156 0.5 -0.5625 0.789234 0.0281121 0.56891
0.574157 0.5 0.5625 0.794558 0.027259 0.631753
0.715434 0.5 -0.375 0.771817 0.0382832 0.571321
0.715434 0.5 0.375 0.776224 0.0383912 0.632038
0.797732 0.5 -0.15 0.75683 0.0462478 0.5864
0.797732 0.5 0.15 0.758659 0.0465626 0.616582
0.624316 0.5 -0.525 0.784329 0.0311671 0.567669
0.624316 0.5 0.525 0.789773 0.0306248 0.634125
0.219992 0.5 -0.7875 0.8075 0.0107658 0.579622
0.219992 0.5 0.7875 0.808889 0.00934387 0.60668
0 0.5 -0.818821 0.809017 0 0.587785
0 0.5 0.818821 0.809017 0 0.587785
0.0124865 0.5 0.818821 0.809053 0.000651101 0.589035
0.0124865 0.5 -0.818821 0.809012 0.000777211 0.587274
0 0.5 -0.825 0.809017 0 0.587785
0 0.5 0.825 0.809017 0 0.587785
0.756813 0.5 0.3375 0.77003 0.041822 0.631831
0.756814 0.5 -0.3375 0.765914 0.041479 0.571738
0.67013 0.5 -0.4875 0.779339 0.0341873 0.566875
0.67013 0.5 0.4875 0.784809 0.0339252 0.635915
0.797732 0.5 -0.225 0.757885 0.0456238 0.579239
0.797732 0.5 0.225 0.760625 0.0460774 0.623878
0 0.5 -0.831179 0.809017 0 0.587785
0 0.5 0.831179 0.809017 0 0.587785
0.0124865 0.5 -0.831179 0.809017 0.000757391 0.587207
0.0124865 0.5 0.831179 0.809058 0.000624317 0.589043
0.835106 0.5 0.0375 0.750729 0.0499627 0.605294
0.835106 0.5 -0.0375 0.750274 0.0498484 0.597087
0.151149 0.5 -0.825 0.808259 0.00773912 0.581731
0.151149 0.5 0.825 0.809123 0.00658794 0.601273
0.835106 0.5 0.1125 0.751885 0.0498285 0.613475
0.835106 0.5 -0.1125 0.750522 0.0494908 0.588993
0.715434 0.5 -0.45 0.77365 0.0373657 0.566214
0.715434 0.5 0.45 0.778941 0.0374409 0.637036
0.797732 0.5 -0.3 0.759467 0.0448063 0.572448
0.797732 0.5 0.3 0.763134 0.0453768 0.630826
0.467897 0.5 0.7125 0.803233 0.0201798 0.62684
0.467897 0.5 -0.7125 0.798267 0.021666 0.569512
0.523432 0.5 -0.675 0.794501 0.0245122 0.567438
0.523432 0.5 0.675 0.800021 0.0232633 0.630832
0.411736 0.5 -0.75 0.801164 0.018931 0.57148
0.411736 0.5 0.75 0.805403 0.0173517 0.622471
0.835106 0.5 -0.1875 0.751451 0.0489001 0.581156
0.835106 0.5 0.1875 0.753721 0.0494471 0.621492
0.574156 0.5 -0.6375 0.790637 0.027325 0.565762
0.574157 0.5 0.6375 0.796588 0.0263054 0.634293
0.350249 0.5 -0.7875 0.803978 0.0161459 0.573852
0.350249 0.5 0.7875 0.807355 0.0144857 0.617591
0.756813 0.5 -0.4125 0.767867 0.0405171 0.56602
0.756814 0.5 0.4125 0.772918 0.0408823 0.637558
0.075776 0.5 -0.8625 0.808987 0.00459068 0.584295
0.075776 0.5 0.8625 0.809244 0.00377463 0.5954
0.624316 0.5 0.6 0.792149 0.0296091 0.637263
0.624316 0.5 -0.6 0.785988 0.0302927 0.564068
0.872064 0.5 5.91974e-17 0.744094 0.0530323 0.600768
0.870122 0.5 0.075 0.74537 0.0528571 0.609914
0.288069 0.5 -0.825 0.805865 0.0133584 0.576047
0.288069 0.5 0.825 0.808348 0.0117406 0.612484
0.67013 0.5 -0.5625 0.781218 0.0332382 0.562779
0.67013 0.5 0.5625 0.78749 0.0328644 0.639684
0.872064 0.5 -0.075 0.744041 0.0527495 0.592034
0.835106 0.5 -0.2625 0.752994 0.0480922 0.57369
0.835106 0.5 0.2625 0.756187 0.0488258 0.629199
0.797732 0.5 -0.375 0.761521 0.043813 0.566098
0.797732 0.5 0.375 0.766141 0.0444714 0.637325
0.872064 0.5 0.14794 0.746541 0.0528004 0.618264
0.872064 0.5 -0.15 0.744763 0.0522103 0.583516
0.715434 0.5 -0.525 0.77576 0.0363394 0.561584
0.715434 0.5 0.525 0.781922 0.0363489 0.641499
0.219992 0.5 0.8625 0.809169 0.00893734 0.606897
0.219993 0.5 -0.8625 0.807688 0.0104836 0.578663
0 0.5 -0.893821 0.809017 0 0.587785
0 0.5 0.893821 0.809017 0 0.587785
0.0124865 0.5 -0.893821 0.809017 0.000757391 0.587207
0.0124865 0.5 0.893821 0.809058 0.000624317 0.589043
0 0.5 -0.9 0.809017 0 0.587785
0 0.5 0.9 0.809017 0 0.587785
0.756813 0.5 -0.4875 0.770161 0.039428 0.560813
0.756813 0.5 0.4875 0.776143 0.0397778 0.642744
0.872064 0.5 -0.225 0.746208 0.051429 0.575359
0.872064 0.5 0.225 0.748887 0.0522866 0.626722
0.835106 0.5 -0.3375 0.755081 0.0470841 0.566678
0.835106 0.5 0.3375 0.75924 0.0479753 0.636472
0 0.5 0.906179 0.809017 0 0.587785
0 0.5 -0.906179 0.809017 0 0.587785
0.0124865 0.5 -0.906179 0.809022 0.000736851 0.587148
0.0124865 0.5 0.906179 0.809061 0.000598476 0.589041
0.90582 0.5 -0.0375 0.737706 0.0559254 0.595675
0.90582 0.5 0.0375 0.738143 0.0561136 0.605049
0.151149 0.5 -0.9 0.808373 0.0075302 0.581082
0.151149 0.5 0.9 0.809282 0.00629878 0.601355
0.90582 0.5 -0.1125 0.738135 0.0554577 0.586455
0.905821 0.5 0.1125 0.739442 0.0560152 0.614418
0.523432 0.5 -0.75 0.795753 0.0237661 0.565039
0.523432 0.5 0.75 0.801757 0.0223293 0.632424
0.574156 0.5 -0.7125 0.792134 0.0264866 0.562983
0.574156 0.5 0.7125 0.798672 0.0252841 0.636364
0.797732 0.5 -0.45 0.763993 0.042668 0.560277
0.797732 0.5 0.45 0.769577 0.0433754 0.643274
0.467897 0.5 0.7875 0.804596 0.0193476 0.627992
0.467897 0.5 -0.7875 0.799251 0.021022 0.567459
0.624316 0.5 -0.675 0.787774 0.0293542 0.560883
0.624316 0.5 0.675 0.794618 0.0285079 0.639886
0.411736 0.5 -0.825 0.801932 0.0183778 0.569758
0.411736 0.5 0.825 0.80645 0.0166212 0.623263
0.872064 0.5 0.3 0.751915 0.0515184 0.634787
0.872064 0.5 -0.3 0.748285 0.0504233 0.567662
0.67013 0.5 -0.6375 0.783265 0.0322108 0.559146
0.67013 0.5 0.6375 0.790309 0.0316994 0.642898
0.90582 0.5 0.1875 0.741582 0.0556299 0.623614
0.905821 0.5 -0.1875 0.739409 0.0547223 0.577573
0.350249 0.5 -0.8625 0.804513 0.0156924 0.572432
0.350249 0.5 0.8625 0.808068 0.0138686 0.618066
0.835106 0.5 -0.4125 0.75767 0.0458987 0.560186
0.835106 0.5 0.4125 0.762821 0.0469086 0.643224
0.715434 0.5 -0.6 0.778092 0.0352209 0.55747
0.715434 0.5 0.6 0.7851 0.0351316 0.645372
0.939201 0.5 2.75387e-17 0.731229 0.0592417 0.59981
0.075776 0.5 0.9375 0.809266 0.0036154 0.595391
0.075776 0.5 -0.9375 0.80902 0.00446494 0.583939
0.939111 0.5 0.075 0.732212 0.0593088 0.610637
0.939201 0.5 -0.075 0.731316 0.0588621 0.589898
0.756813 0.5 0.5625 0.779638 0.0385259 0.647314
0.756814 0.5 -0.5625 0.772743 0.0382306 0.556166
0.90582 0.5 0.2625 0.74451 0.0549644 0.632482
0.905821 0.5 -0.2625 0.741425 0.0537376 0.569169
0.288069 0.5 -0.9 0.806237 0.01298 0.574929
0.288069 0.5 0.9 0.808846 0.0112203 0.612731
0.872064 0.5 -0.375 0.750942 0.0492149 0.560498
0.872064 0.5 0.375 0.755564 0.0505085 0.642338
0.939201 0.5 0.148627 0.733991 0.0590554 0.61988
0.939201 0.5 -0.15 0.732355 0.0581877 0.580267
0.797732 0.5 -0.525 0.766821 0.0413958 0.555058
0.797732 0.5 0.525 0.773361 0.0421071 0.648588
0.219992 0.5 0.9375 0.809449 0.00852759 0.606959
0.219992 0.5 -0.9375 0.807881 0.0101883 0.577823
0.939201 0.5 -0.225 0.734268 0.0572349 0.571102
0.939201 0.5 0.225 0.736634 0.0585404 0.629379
0.905821 0.5 -0.3375 0.74407 0.0525235 0.561298
0.90582 0.5 0.3375 0.748154 0.0540322 0.640853
0.835106 0.5 -0.4875 0.760696 0.0445659 0.554348
0.835106 0.5 0.4875 0.76684 0.0456429 0.649311
0 0.5 0.968821 0.809017 0 0.587785
0 0.5 -0.968821 0.809017 0 0.587785
0.0124865 0.5 -0.968821 0.809022 0.000736851 0.587148
0.0124865 0.5 0.968821 0.809061 0.000598476 0.589041
0.969689 0.5 -0.0375 0.724578 0.0621974 0.593975
0.969689 0.5 0.0375 0.724927 0.0624662 0.604577
0.574156 0.5 -0.7875 0.793691 0.0256075 0.560576
0.574156 0.5 0.7875 0.800767 0.0242098 0.637957
0 0.5 -0.975 0.809017 0 0.587785
0 0.5 0.975 0.809017 0 0.587785
0.624316 0.5 -0.75 0.789642 0.0283663 0.558123
0.624316 0.5 0.75 0.797129 0.0273371 0.641979
0.969689 0.5 -0.1125 0.725277 0.0616072 0.583566
0.96969 0.5 0.1125 0.726321 0.0624044 0.615196
0.523432 0.5 -0.825 0.797044 0.0229872 0.562965
0.523432 0.5 0.825 0.803483 0.0213558 0.633589
0.67013 0.5 0.7125 0.793209 0.030447 0.645534
0.67013 0.5 -0.7125 0.785427 0.0311234 0.555991
0 0.5 -0.981179 0.809017 0 0.587785
0 0.5 0.981179 0.809017 0 0.587785
0.467897 0.5 0.8625 0.805932 0.0184877 0.628772
0.467897 0.5 -0.8625 0.800262 0.0203515 0.565681
0.0124865 0.5 -0.981179 0.809027 0.000715736 0.587097
0.0124865 0.5 0.981179 0.809065 0.000573253 0.589031
0.872064 0.5 -0.45 0.754126 0.0478328 0.553981
0.872064 0.5 0.45 0.759755 0.0492728 0.649255
0.715434 0.5 -0.675 0.780577 0.0340285 0.553887
0.715434 0.5 0.675 0.788407 0.0338068 0.648621
0.939201 0.5 -0.3 0.736897 0.0560253 0.562497
0.939201 0.5 0.3 0.740194 0.0577032 0.638596
0.151149 0.5 0.975 0.809434 0.00601094 0.601332
0.151149 0.5 -0.975 0.808489 0.00731335 0.580518
0.969689 0.5 -0.1875 0.72702 0.0607082 0.573587
0.969689 0.5 0.1875 0.728739 0.062011 0.625631
0.756813 0.5 -0.6375 0.775527 0.0369436 0.552106
0.756813 0.5 0.6375 0.783317 0.0371454 0.651219
0.411736 0.5 -0.9 0.802717 0.0178033 0.568271
0.411736 0.5 0.9 0.807468 0.0158706 0.62374
0.90582 0.5 -0.4125 0.747352 0.0511068 0.554047
0.90582 0.5 0.4125 0.752447 0.0528468 0.648619
0.995005 0.5 0.0749309 0.720805 0.0643865 0.610717
0.797732 0.5 -0.6 0.769916 0.0400176 0.550477
0.797732 0.5 0.6 0.777406 0.040687 0.653208
1.00005 0.5 -8.47123e-18 0.718702 0.0647147 0.598681
0.350249 0.5 -0.9375 0.805059 0.0152216 0.571206
0.350249 0.5 0.9375 0.808761 0.0132348 0.618288
1.00005 0.5 -0.0749309 0.718932 0.0642483 0.587672
0.969689 0.5 -0.2625 0.729622 0.0595228 0.564225
0.969689 0.5 0.2625 0.732125 0.0612926 0.635703
0.835106 0.5 -0.5625 0.764071 0.0431083 0.549187
0.835106 0.5 0.5625 0.771203 0.0442003 0.654691
1.00005 0.5 -0.149862 0.720295 0.0634567 0.576995
0.939201 0.5 -0.375 0.740206 0.0545842 0.554509
0.939201 0.5 0.375 0.744514 0.0565849 0.647222
1.00029 0.5 0.148988 0.721776 0.064578 0.621006
0.075776 0.5 -1.0125 0.809052 0.00433557 0.58363
0.075776 0.5 1.0125 0.809289 0.00345986 0.595329
0.288069 0.5 0.975 0.809333 0.0106911 0.612779
0.288069 0.5 -0.975 0.806613 0.0125885 0.573967
0.872064 0.5 -0.525 0.757739 0.0463055 0.548199
0.872064 0.5 0.525 0.764386 0.0478324 0.655431
1.00005 0.5 0.224793 0.724709 0.0640857 0.6316
1.00005 0.5 -0.224793 0.722688 0.0623596 0.566915
0.969689 0.5 0.3375 0.73639 0.0602638 0.645223
0.96969 0.5 -0.3375 0.732853 0.0580771 0.555473
1.0271 0.5 -0.0368226 0.712054 0.067527 0.592318
1.0271 0.5 0.0368226 0.712366 0.0678556 0.603825
0.90582 0.5 0.4875 0.757289 0.0514283 0.655647
0.905821 0.5 -0.4875 0.751161 0.0495237 0.547584
1.0271 0.5 -0.110468 0.712932 0.0668606 0.581015
1.0271 0.5 0.110468 0.713601 0.0681199 0.618034
0.67013 0.5 0.7875 0.796134 0.0291254 0.647581
0.67013 0.5 -0.7875 0.787652 0.0299906 0.553309
0.624316 0.5 0.825 0.799635 0.0261133 0.643538
0.624316 0.5 -0.825 0.791551 0.0273419 0.555781
0.219993 0.5 -1.0125 0.808077 0.00988312 0.577101
0.219993 0.5 1.0125 0.809716 0.008118 0.606876
0.574156 0.5 -0.8625 0.795273 0.0246993 0.558534
0.574156 0.5 0.8625 0.802834 0.023097 0.639071
0.715434 0.5 -0.75 0.783153 0.0327808 0.550836
0.715434 0.5 0.75 0.791775 0.0323935 0.651229
0.756813 0.5 0.7125 0.787104 0.0356559 0.654432
0.756814 0.5 -0.7125 0.77844 0.0355893 0.548639
0.523432 0.5 -0.9 0.798349 0.0221847 0.561207
0.523432 0.5 0.9 0.80517 0.0203549 0.634333
0.939201 0.5 -0.45 0.744173 0.0529452 0.547278
0.939201 0.5 0.45 0.7495 0.0552042 0.655129
1.04168 0.5 0 0.708554 0.0692406 0.597706
1.0271 0.5 -0.184113 0.714995 0.0658683 0.570211
1.0271 0.5 0.184113 0.716535 0.0674712 0.626721
0 0.5 -1.04382 0.809017 0 0.587785
0 0.5 1.04382 0.809017 0 0.587785
0.0124865 0.5 -1.04382 0.809027 0.000715736 0.587097
0.0124865 0.5 1.04382 0.809065 0.000573253 0.589031
1.00005 0.5 -0.299723 0.725874 0.0609832 0.557496
1.00005 0.5 0.299723 0.728798 0.0632087 0.641891
1.04168 0.5 -0.0729162 0.708873 0.0687262 0.586074
1.04168 0.5 0.0729162 0.709444 0.0694096 0.609452
0.797732 0.5 -0.675 0.773183 0.0385563 0.546553
0.797732 0.5 0.675 0.78162 0.0391367 0.657086
0.467897 0.5 0.9375 0.807226 0.0176111 0.62919
0.467897 0.5 -0.9375 0.80128 0.0196618 0.564174
0 0.5 -1.05 0.809017 0 0.587785
0 0.5 1.05 0.809017 0 0.587785
0.835106 0.5 -0.6375 0.767675 0.04155 0.54475
0.835106 0.5 0.6375 0.775808 0.0426051 0.659283
1.04168 0.5 -0.145832 0.7104 0.0678768 0.574791
1.04168 0.5 0.145832 0.711536 0.0692279 0.62113
0.969689 0.5 -0.4125 0.736912 0.0563982 0.547422
0.96969 0.5 0.4125 0.741445 0.0589421 0.654033
0 0.5 -1.05618 0.809017 0 0.587785
0 0.5 1.05618 0.809017 0 0.587785
0.0124865 0.5 -1.05618 0.809033 0.000694324 0.587054
0.0124865 0.5 1.05618 0.80907 0.000549171 0.589013
1.05695 0.5 -0.0360764 0.704787 0.070584 0.59133
1.05695 0.5 0.0360764 0.705038 0.070944 0.603261
0.411736 0.5 -0.975 0.803504 0.0172134 0.567012
0.411736 0.5 0.975 0.808448 0.015106 0.623917
0.872064 0.5 -0.6 0.761665 0.0446593 0.543193
0.872064 0.5 0.6 0.769341 0.0462133 0.660794
1.0271 0.5 -0.257759 0.718041 0.0645793 0.560172
1.0271 0.5 0.257759 0.720305 0.0667632 0.637708
0.151149 0.5 -1.05 0.808606 0.00709098 0.580036
0.151149 0.5 1.05 0.809582 0.00572866 0.601212
1.05695 0.5 0.108229 0.705828 0.0712676 0.615499
1.05695 0.5 -0.108229 0.705758 0.0698815 0.579593
1.04168 0.5 -0.218749 0.713043 0.0667126 0.564188
1.04168 0.5 0.218749 0.714787 0.0686981 0.632537
0.90582 0.5 -0.5625 0.755375 0.0477991 0.54194
0.905821 0.5 0.5625 0.762558 0.0498014 0.661823
1.00005 0.5 -0.374654 0.729856 0.059347 0.548725
1.00005 0.5 0.374654 0.733784 0.0620199 0.651529
0.350249 0.5 1.0125 0.809441 0.0125867 0.618271
0.350249 0.5 -1.0125 0.805607 0.0147385 0.570167
1.05695 0.5 -0.180382 0.707944 0.0688482 0.568377
1.05695 0.5 0.180382 0.709216 0.0706057 0.627038
1.07319 0.5 0.0709442 0.701696 0.0727847 0.611626
0.939201 0.5 -0.525 0.748655 0.0511416 0.54093
0.939201 0.5 0.525 0.755031 0.0535842 0.662188
1.0271 0.5 -0.331404 0.721829 0.0630164 0.550759
1.0271 0.5 0.331404 0.725083 0.0657268 0.648132
1.08112 0.5 3.23815e-17 0.698515 0.0733951 0.596634
1.04168 0.5 -0.291665 0.716574 0.0652607 0.554314
1.04168 0.5 0.291665 0.719119 0.0678297 0.643476
1.08112 0.5 -0.0709442 0.698934 0.0728389 0.584444
0.969689 0.5 -0.4875 0.741601 0.0545316 0.540286
0.96969 0.5 0.4875 0.747173 0.0573516 0.662023
1.05695 0.5 0.252535 0.71306 0.0699124 0.638473
1.05695 0.5 -0.252535 0.711178 0.0675109 0.558035
0.288069 0.5 -1.05 0.806988 0.012188 0.573155
0.288069 0.5 1.05 0.809806 0.0101596 0.61264
0.075776 0.5 -1.0875 0.809085 0.00420436 0.583368
0.075776 0.5 1.0875 0.809319 0.003311 0.595216
1.08112 0.5 -0.141888 0.7006 0.0719435 0.572613
1.08145 0.5 0.140165 0.701756 0.0733517 0.621547
0.715434 0.5 0.825 0.79514 0.0309125 0.653188
0.715434 0.5 -0.825 0.78576 0.0314947 0.548304
0.756813 0.5 0.7875 0.790922 0.0340795 0.656941
0.756814 0.5 -0.7875 0.781409 0.0341867 0.545754
0.67013 0.5 -0.8625 0.789891 0.0288275 0.551085
0.67013 0.5 0.8625 0.799028 0.0277529 0.64904
0.797732 0.5 -0.75 0.77654 0.0370351 0.543276
0.797732 0.5 0.75 0.785919 0.0374788 0.660207
0.624316 0.5 -0.9 0.793462 0.0262936 0.553843
0.624316 0.5 0.9 0.802094 0.0248515 0.644568
1.00005 0.5 -0.449585 0.734633 0.0574917 0.540801
1.00005 0.5 0.449585 0.739555 0.0605403 0.660371
0.835106 0.5 -0.7125 0.771409 0.0399177 0.54103
0.835106 0.5 0.7125 0.780551 0.0408802 0.663059
0.574156 0.5 -0.9375 0.79685 0.0237721 0.556843
0.574157 0.5 0.9375 0.804845 0.0219582 0.639718
1.10076 0.5 -0.0349809 0.693152 0.0753373 0.589803
1.10076 0.5 0.0349809 0.693324 0.0757399 0.602372
1.08112 0.5 -0.212832 0.703438 0.0707261 0.561517
1.08112 0.5 0.212832 0.704777 0.0729474 0.633194
0.872064 0.5 -0.675 0.765779 0.0429223 0.538979
0.872064 0.5 0.675 0.774494 0.0444402 0.6653
1.04168 0.5 -0.364581 0.720961 0.0635332 0.545062
1.04168 0.5 0.364581 0.724426 0.0666385 0.653759
1.0271 0.5 0.405049 0.730752 0.0643804 0.657812
1.0271 0.5 -0.405049 0.726552 0.06119 0.542027