# UMean  POINT_DATA 63140
# x  y  z  UMean_x  UMean_y  UMean_z
0 0.1 0 0.809017 0 0.587785
0 0.1 -0.0179898 0.809017 0 0.587785
0 0.1 0.0179898 0.809017 0 0.587785
0.0363518 0.1 0.0179898 0.811887 0.00688323 0.589692
0.0363518 0.1 -0.0179898 0.811897 0.00690239 0.589338
0 0.1 -0.0570102 0.809017 0 0.587785
0 0.1 0.0570102 0.809017 0 0.587785
0.0363518 0.1 0.0570102 0.811887 0.00688323 0.589692
0.0363518 0.1 -0.0570102 0.811897 0.00690239 0.589338
0 0.1 -0.075 0.809017 0 0.587785
0 0.1 0.075 0.809017 0 0.587785
0.075776 0.1 -0.0375 0.815062 0.0145026 0.591015
0.075776 0.1 0.0375 0.815043 0.0144638 0.591752
0 0.1 -0.0929898 0.809017 0 0.587785
0 0.1 0.0929898 0.809017 0 0.587785
0.0363518 0.1 -0.0929898 0.811888 0.00691584 0.588975
0.0363518 0.1 0.0929898 0.811873 0.00685369 0.590031
0 0.1 -0.13201 0.809017 0 0.587785
0 0.1 0.13201 0.809017 0 0.587785
0.075776 0.1 -0.1125 0.815042 0.0145301 0.590257
0.075776 0.1 0.1125 0.815014 0.0144037 0.592459
0.0363518 0.1 -0.13201 0.811888 0.00691584 0.588975
0.0363518 0.1 0.13201 0.811873 0.00685369 0.590031
0 0.1 -0.15 0.809017 0 0.587785
0 0.1 0.15 0.809017 0 0.587785
0.150379 0.1 -2.22623e-17 0.816596 0.0137082 0.59329
0 0.1 -0.16799 0.809017 0 0.587785
0 0.1 0.16799 0.809017 0 0.587785
0.150379 0.1 -0.075 0.816476 0.0137122 0.591964
0.150379 0.1 0.075 0.816758 0.0136823 0.594571
0.0363518 0.1 -0.16799 0.811852 0.00692388 0.588599
0.0363518 0.1 0.16799 0.811853 0.00681353 0.590348
0.075776 0.1 -0.1875 0.814965 0.0145468 0.589473
0.075776 0.1 0.1875 0.814975 0.0143218 0.593119
0 0.1 -0.20701 0.809017 0 0.587785
0 0.1 0.20701 0.809017 0 0.587785
0.0363518 0.1 -0.20701 0.811852 0.00692388 0.588599
0.0363518 0.1 0.20701 0.811853 0.00681353 0.590348
0.150379 0.1 -0.15 0.816393 0.0136957 0.59062
0.150379 0.1 0.15 0.816973 0.0136303 0.595793
0.219993 0.1 -0.0375 0.817925 0.0129682 0.594186
0.219993 0.1 0.0375 0.818216 0.0129761 0.596033
0 0.1 -0.225 0.809017 0 0.587785
0 0.1 0.225 0.809017 0 0.587785
0 0.1 -0.24299 0.809017 0 0.587785
0 0.1 0.24299 0.809017 0 0.587785
0.0363518 0.1 0.24299 0.811825 0.00676842 0.590632
0.0363518 0.1 -0.24299 0.811814 0.00691654 0.588197
0.219993 0.1 -0.1125 0.817748 0.0129285 0.592276
0.219993 0.1 0.1125 0.818605 0.0129615 0.597816
0.150379 0.1 -0.225 0.816362 0.0136593 0.589278
0.150379 0.1 0.225 0.817243 0.0135519 0.596941
0.075776 0.1 -0.2625 0.814885 0.0145319 0.588634
0.075776 0.1 0.2625 0.814919 0.0142299 0.59371
0 0.1 -0.28201 0.809017 0 0.587785
0 0.1 0.28201 0.809017 0 0.587785
0.0363518 0.1 -0.28201 0.811814 0.00691654 0.588197
0.0363518 0.1 0.28201 0.811825 0.00676842 0.590632
0.287374 0.1 -2.89121e-19 0.815041 0.0125716 0.59639
0.219992 0.1 0.1875 0.819123 0.0129087 0.599505
0.219992 0.1 -0.1875 0.817692 0.0128613 0.590408
0.287374 0.1 -0.075 0.814821 0.0125411 0.593988
0.287374 0.1 0.075 0.815391 0.0125783 0.598745
0 0.1 -0.3 0.809017 0 0.587785
0 0.1 0.3 0.809017 0 0.587785
0 0.1 0.31799 0.809017 0 0.587785
0 0.1 -0.31799 0.809017 0 0.587785
0.0363518 0.1 -0.31799 0.811772 0.00688187 0.58782
0.0363518 0.1 0.31799 0.811796 0.00672811 0.59088
0.287374 0.1 0.15 0.81587 0.0125551 0.601018
0.287374 0.1 -0.15 0.814743 0.0124888 0.591579
0.150379 0.1 -0.3 0.81641 0.0135951 0.587955
0.150379 0.1 0.3 0.817536 0.0134575 0.598008
0.219993 0.1 0.2625 0.81975 0.012821 0.601113
0.219993 0.1 -0.2625 0.817779 0.0127846 0.588576
0.075776 0.1 -0.3375 0.814799 0.0144597 0.587849
0.075776 0.1 0.3375 0.814859 0.0141479 0.594227
0.350249 0.1 -0.0375 0.812 0.0121744 0.596169
0.350249 0.1 0.0375 0.812291 0.0122037 0.599061
0 0.1 -0.35701 0.809017 0 0.587785
0 0.1 0.35701 0.809017 0 0.587785
0.0363518 0.1 -0.35701 0.811772 0.00688187 0.58782
0.0363518 0.1 0.35701 0.811796 0.00672811 0.59088
0.287374 0.1 -0.225 0.814815 0.0124229 0.58921
0.287374 0.1 0.225 0.816486 0.0124956 0.603186
0.350249 0.1 -0.1125 0.811876 0.0121299 0.593254
0.350249 0.1 0.1125 0.812719 0.0122068 0.601911
0 0.1 -0.375 0.809017 0 0.587785
0 0.1 0.375 0.809017 0 0.587785
0 0.1 -0.39299 0.809017 0 0.587785
0 0.1 0.39299 0.809017 0 0.587785
0.0363518 0.1 -0.39299 0.811724 0.00683365 0.587452
0.0363518 0.1 0.39299 0.811773 0.0066937 0.591091
0.350249 0.1 -0.1875 0.811921 0.012072 0.590357
0.350249 0.1 0.1875 0.8133 0.0121777 0.604635
0.219992 0.1 -0.3375 0.818036 0.0126935 0.586786
0.219992 0.1 0.3375 0.820382 0.0127056 0.602617
0.150379 0.1 0.375 0.817818 0.0133574 0.598978
0.150379 0.1 -0.375 0.816542 0.0135094 0.586681
0.411108 0.1 4.33681e-19 0.807328 0.0124933 0.598454
0.287374 0.1 -0.3 0.815048 0.0123482 0.586892
0.287374 0.1 0.3 0.81721 0.0123961 0.60524
0.411108 0.1 -0.075 0.807129 0.012451 0.594964
0.411108 0.1 0.075 0.807732 0.0125159 0.601906
0.075776 0.1 -0.4125 0.814701 0.014361 0.58708
0.075776 0.1 0.4125 0.814813 0.0140778 0.594667
0 0.1 0.43201 0.809017 0 0.587785
0 0.1 -0.43201 0.809017 0 0.587785
0.0363518 0.1 0.43201 0.811773 0.0066937 0.591091
0.0363518 0.1 -0.43201 0.811724 0.00683365 0.587452
0.411108 0.1 -0.15 0.807144 0.0123941 0.591482
0.411108 0.1 0.15 0.808331 0.0125107 0.605269
0.350249 0.1 -0.2625 0.812129 0.0120095 0.587522
0.350249 0.1 0.2625 0.814035 0.0121086 0.607243
0 0.1 -0.45 0.809017 0 0.587785
0 0.1 0.45 0.809017 0 0.587785
0.219992 0.1 0.4125 0.820954 0.0125753 0.60399
0.219992 0.1 -0.4125 0.818472 0.0126127 0.585079
0 0.1 -0.46799 0.809017 0 0.587785
0 0.1 0.46799 0.809017 0 0.587785
0.411108 0.1 -0.225 0.807368 0.0123296 0.588056
0.411108 0.1 0.225 0.809127 0.012466 0.608494
0.467897 0.1 -0.0375 0.80255 0.0127645 0.597232
0.467897 0.1 0.0375 0.802871 0.0128023 0.601284
0.0363518 0.1 0.46799 0.811757 0.00666747 0.591263
0.0363518 0.1 -0.46799 0.81169 0.00679071 0.587098
0.287374 0.1 -0.375 0.815451 0.0122749 0.584655
0.287374 0.1 0.375 0.817984 0.0122606 0.607137
0.150379 0.1 0.45 0.818078 0.0132604 0.59983
0.150379 0.1 -0.45 0.816778 0.0134323 0.585445
0.467897 0.1 0.1125 0.803441 0.0128219 0.60525
0.467897 0.1 -0.1125 0.802488 0.0127073 0.593178
0.350249 0.1 -0.3375 0.812504 0.0119406 0.584751
0.350249 0.1 0.3375 0.814929 0.0119829 0.609694
0.075776 0.1 -0.4875 0.814633 0.0142744 0.586341
0.075776 0.1 0.4875 0.814781 0.0140244 0.595027
0.467897 0.1 0.1875 0.804254 0.0128068 0.609114
0.467897 0.1 -0.1875 0.802684 0.01264 0.589164
0 0.1 -0.50701 0.809017 0 0.587785
0 0.1 0.50701 0.809017 0 0.587785
0.0363518 0.1 -0.50701 0.81169 0.00679071 0.587098
0.0363518 0.1 0.50701 0.811757 0.00666747 0.591263
0.411108 0.1 0.3 0.810121 0.012372 0.611545
0.411108 0.1 -0.3 0.807795 0.0122587 0.584721
0.522865 0.1 1.41031e-17 0.796683 0.0133811 0.599635
0 0.1 -0.525 0.809017 0 0.587785
0 0.1 0.525 0.809017 0 0.587785
0.522865 0.1 -0.075 0.796516 0.0133291 0.594973
0.522865 0.1 0.075 0.797163 0.013408 0.604259
0.287374 0.1 0.45 0.818761 0.0120994 0.608838
0.287374 0.1 -0.45 0.816037 0.0122152 0.582497
0.219992 0.1 0.4875 0.82147 0.0124442 0.605186
0.219992 0.1 -0.4875 0.81912 0.0125693 0.583393
0.467897 0.1 -0.2625 0.803125 0.0125699 0.585254
0.467897 0.1 0.2625 0.805298 0.0127408 0.612774
0.350249 0.1 -0.4125 0.813043 0.0118871 0.582112
0.350249 0.1 0.4125 0.815912 0.0118135 0.611915
0 0.1 -0.54299 0.809017 0 0.587785
0 0.1 0.54299 0.809017 0 0.587785
0.522865 0.1 0.15 0.797949 0.0134043 0.608779
0.522865 0.1 -0.15 0.796663 0.0132573 0.590347
0.0363518 0.1 0.54299 0.811747 0.00664792 0.591406
0.0363518 0.1 -0.54299 0.811671 0.00676254 0.58677
0.150379 0.1 -0.525 0.817053 0.0133795 0.584263
0.150379 0.1 0.525 0.818306 0.0131715 0.600536
0.411108 0.1 -0.375 0.808415 0.0121883 0.581521
0.411108 0.1 0.375 0.811292 0.0122259 0.614373
0.075776 0.1 -0.5625 0.814595 0.0142175 0.585657
0.075776 0.1 0.5625 0.814759 0.0139848 0.595324
0.522865 0.1 -0.225 0.797113 0.0131729 0.58582
0.522865 0.1 0.225 0.79903 0.0133577 0.613129
0.574156 0.1 0.0375 0.791054 0.0139735 0.602624
0.574157 0.1 -0.0375 0.790723 0.013932 0.597369
0.467897 0.1 -0.3375 0.803799 0.0124883 0.581473
0.467897 0.1 0.3375 0.806587 0.0126256 0.616217
0 0.1 -0.58201 0.809017 0 0.587785
0 0.1 0.58201 0.809017 0 0.587785
0.0363518 0.1 -0.58201 0.811671 0.00676254 0.58677
0.0363518 0.1 0.58201 0.811747 0.00664792 0.591406
0.574157 0.1 -0.1125 0.790767 0.0138612 0.59213
0.574157 0.1 0.1125 0.791751 0.0139825 0.6078
0.287374 0.1 -0.525 0.816695 0.0121589 0.580437
0.287374 0.1 0.525 0.819499 0.0119215 0.6103
0 0.1 -0.6 0.809017 0 0.587785
0 0.1 0.6 0.809017 0 0.587785
0.350249 0.1 0.4875 0.816928 0.0116022 0.613893
0.350249 0.1 -0.4875 0.81376 0.011826 0.579552
0.522865 0.1 -0.3 0.797846 0.0130736 0.581445
0.522865 0.1 0.3 0.800402 0.0132583 0.617245
0.219992 0.1 -0.5625 0.819647 0.0125435 0.581817
0.219992 0.1 0.5625 0.821899 0.0123166 0.606124
0.574156 0.1 -0.1875 0.791173 0.0137698 0.586977
0.574156 0.1 0.1875 0.792807 0.0139547 0.612828
0.411108 0.1 0.45 0.812583 0.0120285 0.616931
0.411108 0.1 -0.45 0.809212 0.0121165 0.578473
0 0.1 -0.61799 0.809017 0 0.587785
0 0.1 0.61799 0.809017 0 0.587785
0.150379 0.1 -0.6 0.817284 0.013339 0.583174
0.150379 0.1 0.6 0.818507 0.0130885 0.60109
0.0363518 0.1 -0.61799 0.811662 0.0067422 0.58647
0.0363518 0.1 0.61799 0.811745 0.0066284 0.591524
0.467897 0.1 -0.4125 0.804676 0.0124114 0.577904
0.467897 0.1 0.4125 0.808084 0.0124514 0.619374
0.623803 0.1 2.34188e-17 0.783926 0.0148251 0.599984
0.623803 0.1 0.075 0.784467 0.0148524 0.60584
0.623803 0.1 -0.075 0.783827 0.0147588 0.59411
0.574156 0.1 0.2625 0.794208 0.0138777 0.61763
0.574156 0.1 -0.2625 0.791919 0.0136625 0.58199
0.623803 0.1 0.15 0.785445 0.0148365 0.611582
0.623803 0.1 -0.15 0.784165 0.0146592 0.588311
0.075776 0.1 0.6375 0.814755 0.0139453 0.59557
0.075776 0.1 -0.6375 0.814578 0.0141762 0.585033
0.522865 0.1 -0.375 0.79883 0.0129614 0.577285
0.522865 0.1 0.375 0.80205 0.0131009 0.621074
0 0.1 0.65701 0.809017 0 0.587785
0 0.1 -0.65701 0.809017 0 0.587785
0.0363518 0.1 0.65701 0.811745 0.0066284 0.591524
0.0363518 0.1 -0.65701 0.811662 0.0067422 0.58647
0.350249 0.1 0.5625 0.817895 0.0113649 0.615596
0.350249 0.1 -0.5625 0.814494 0.0117331 0.577174
0.623803 0.1 0.225 0.786844 0.014772 0.61712
0.623803 0.1 -0.225 0.784915 0.0145318 0.582672
0.287374 0.1 -0.6 0.817298 0.0120884 0.57854
0.287374 0.1 0.6 0.820175 0.0117399 0.611493
0.574157 0.1 -0.3375 0.792974 0.0135263 0.577211
0.574157 0.1 0.3375 0.795944 0.013739 0.622145
0.411108 0.1 0.525 0.813922 0.0117859 0.61919
0.411108 0.1 -0.525 0.810123 0.0120187 0.575609
0.67013 0.1 0.0375 0.777368 0.0156894 0.603223
0.67013 0.1 -0.0375 0.777057 0.015635 0.59672
0.219992 0.1 -0.6375 0.820076 0.0125051 0.580384
0.219993 0.1 0.6375 0.822281 0.0121955 0.606829
0 0.1 -0.675 0.809017 0 0.587785
0 0.1 0.675 0.809017 0 0.587785
0.467897 0.1 -0.4875 0.805717 0.0123172 0.574518
0.467897 0.1 0.4875 0.809727 0.0122171 0.622212
0.67013 0.1 -0.1125 0.777259 0.015537 0.590265
0.67013 0.1 0.1125 0.778194 0.0156933 0.609667
0.522865 0.1 0.45 0.80393 0.0128812 0.624561
0.522865 0.1 -0.45 0.800022 0.0128344 0.573378
0.150379 0.1 0.675 0.818701 0.0130098 0.601505
0.150379 0.1 -0.675 0.817487 0.013296 0.582188
0.623803 0.1 0.3 0.788648 0.0146489 0.622376
0.623803 0.1 -0.3 0.78604 0.0143719 0.577262
0 0.1 -0.69299 0.809017 0 0.587785
0 0.1 0.69299 0.809017 0 0.587785
0.0363518 0.1 -0.69299 0.811662 0.00672313 0.586205
0.0363518 0.1 0.69299 0.811748 0.00661028 0.591614
0.67013 0.1 -0.1875 0.77795 0.0154005 0.583957
0.67013 0.1 0.1875 0.779519 0.0156452 0.615941
0.574156 0.1 0.4125 0.797994 0.0135383 0.626306
0.574157 0.1 -0.4125 0.794289 0.0133747 0.572736
0.714971 0.1 -2.8382e-17 0.769572 0.016776 0.599628
0.075776 0.1 -0.7125 0.81458 0.0141373 0.584481
0.075776 0.1 0.7125 0.814761 0.0139084 0.595756
0.714971 0.1 -0.075 0.769583 0.0166796 0.592504
0.714971 0.1 0.075 0.770156 0.0168143 0.606763
0.67013 0.1 0.2625 0.781322 0.0155411 0.621946
0.67013 0.1 -0.2625 0.779093 0.0152281 0.577891
0.411108 0.1 -0.6 0.811068 0.0118849 0.572991
0.411108 0.1 0.6 0.815245 0.0115177 0.621112
0.350249 0.1 0.6375 0.818801 0.0111295 0.616986
0.350249 0.1 -0.6375 0.815204 0.0116117 0.575005
0.623803 0.1 0.375 0.790834 0.0144597 0.627273
0.623803 0.1 -0.375 0.787495 0.01418 0.57216
0.714971 0.1 -0.15 0.77017 0.0165308 0.585508
0.714971 0.1 0.15 0.77133 0.0167895 0.613789
0.467897 0.1 -0.5625 0.806855 0.0121757 0.571418
0.467897 0.1 0.5625 0.811428 0.0119312 0.624693
0 0.1 -0.73201 0.809017 0 0.587785
0 0.1 0.73201 0.809017 0 0.587785
0.0363518 0.1 0.73201 0.811748 0.00661028 0.591614
0.0363518 0.1 -0.73201 0.811662 0.00672313 0.586205
0.287374 0.1 -0.675 0.817852 0.0119973 0.576822
0.287374 0.1 0.675 0.820811 0.011563 0.612418
0.522865 0.1 -0.525 0.801371 0.0126707 0.569766
0.522865 0.1 0.525 0.805971 0.0126002 0.627663
0.219993 0.1 -0.7125 0.820456 0.0124519 0.579085
0.219992 0.1 0.7125 0.822656 0.0120818 0.607337
0.714971 0.1 -0.225 0.771296 0.0163323 0.578748
0.714971 0.1 0.225 0.773073 0.0167002 0.620585
0 0.1 0.75 0.809017 0 0.587785
0 0.1 -0.75 0.809017 0 0.587785
0.67013 0.1 -0.3375 0.780636 0.0150074 0.57212
0.67013 0.1 0.3375 0.783579 0.0153697 0.627601
0.574156 0.1 -0.4875 0.795809 0.0131927 0.568569
0.574157 0.1 0.4875 0.800302 0.0132703 0.63006
0.756813 0.1 0.0375 0.762313 0.0178895 0.60319
0.756814 0.1 -0.0375 0.762053 0.0178063 0.595397
0.150379 0.1 0.746002 0.818811 0.0129555 0.601677
0.150379 0.1 -0.75 0.817663 0.0132486 0.581307
0.756813 0.1 -0.1125 0.762461 0.0176578 0.587697
0.756813 0.1 0.1125 0.763251 0.0179004 0.610949
0 0.1 0.76799 0.809017 0 0.587785
0 0.1 -0.76799 0.809017 0 0.587785
0.0363518 0.1 0.76799 0.811753 0.00659504 0.591672
0.0363518 0.1 -0.76799 0.811669 0.00670801 0.585968
0.623803 0.1 -0.45 0.789221 0.013957 0.567427
0.623803 0.1 0.45 0.793361 0.0142015 0.631746
0.714971 0.1 -0.3 0.772906 0.0160814 0.572306
0.714971 0.1 0.3 0.775357 0.0165409 0.627045
0.756814 0.1 -0.1875 0.763503 0.017448 0.580217
0.756814 0.1 0.1875 0.764853 0.0178349 0.618533
0.67013 0.1 -0.4125 0.782522 0.0147517 0.566772
0.67013 0.1 0.4125 0.786259 0.0151251 0.63282
0.411108 0.1 0.675 0.816526 0.011242 0.622668
0.411108 0.1 -0.675 0.812015 0.0117213 0.570639
0.467897 0.1 0.6375 0.813116 0.0116197 0.626775
0.467897 0.1 -0.6375 0.808037 0.0119987 0.568619
0.075776 0.1 0.7875 0.814772 0.0138775 0.595878
0.075776 0.1 -0.7875 0.814595 0.0141062 0.583988
0.350249 0.1 -0.7125 0.815887 0.0114645 0.573066
0.350249 0.1 0.7125 0.819659 0.0108975 0.618058
0.522865 0.1 -0.6 0.802819 0.0124648 0.566504
0.522865 0.1 0.6 0.808089 0.0122706 0.630337
0.797314 0.1 -3.59473e-17 0.754094 0.0192482 0.598691
0.287374 0.1 0.746002 0.821419 0.0114093 0.612963
0.797314 0.1 -0.075 0.754265 0.0190977 0.590287
0.797314 0.1 0.075 0.754684 0.0193147 0.607144
0.756814 0.1 -0.2625 0.765116 0.0171757 0.573067
0.756814 0.1 0.2625 0.767084 0.0176962 0.625811
0.287374 0.1 -0.75 0.818354 0.0118883 0.575293
0.574156 0.1 -0.5625 0.797486 0.012959 0.564803
0.574156 0.1 0.5625 0.802787 0.0129362 0.63336
0 0.1 0.80701 0.809017 0 0.587785
0 0.1 -0.80701 0.809017 0 0.587785
0.714971 0.1 -0.375 0.774943 0.0157802 0.566283
0.714971 0.1 0.375 0.778146 0.0163044 0.633075
0.0363518 0.1 0.80701 0.811753 0.00659504 0.591672
0.0363518 0.1 -0.80701 0.811669 0.00670801 0.585968
0.797314 0.1 -0.15 0.755172 0.0188681 0.582073
0.797314 0.1 0.15 0.756039 0.0192913 0.6155
0.623803 0.1 -0.525 0.791162 0.0136902 0.563113
0.623803 0.1 0.525 0.796161 0.0138733 0.635738
0.219992 0.1 0.7875 0.823029 0.0119685 0.60768
0.219992 0.1 -0.7875 0.820748 0.0123866 0.577938
0.149792 0.1 0.80701 0.819037 0.012882 0.601933
0 0.1 0.825 0.809017 0 0.587785
0 0.1 -0.825 0.809017 0 0.587785
0.797314 0.1 -0.225 0.756755 0.0185636 0.574184
0.797314 0.1 0.225 0.758133 0.0191772 0.623609
0.756813 0.1 -0.3375 0.767241 0.016841 0.566322
0.756813 0.1 0.3375 0.76991 0.017475 0.632671
0.67013 0.1 0.4875 0.789304 0.0148074 0.637539
0.67013 0.1 -0.4875 0.784684 0.0144534 0.561859
0.835106 0.1 -0.0375 0.74617 0.0205322 0.593549
0.835106 0.1 0.0375 0.746324 0.0206684 0.602662
0.150379 0.1 -0.825 0.817815 0.0131979 0.580531
0.835106 0.1 -0.1125 0.746856 0.0203002 0.584577
0.835106 0.1 0.1125 0.747336 0.0207027 0.611768
0 0.1 -0.84299 0.809017 0 0.587785
0 0.1 0.84299 0.809017 0 0.587785
0.0363518 0.1 -0.84299 0.811677 0.00669312 0.585758
0.0363518 0.1 0.84299 0.811758 0.00658043 0.591697
0.714971 0.1 -0.45 0.777337 0.0154328 0.560757
0.714971 0.1 0.45 0.781387 0.0159898 0.638587
0.411108 0.1 0.746002 0.817744 0.0109757 0.623702
0.797314 0.1 -0.3 0.758943 0.0181877 0.566721
0.797314 0.1 0.3 0.760924 0.0189711 0.63133
0.467897 0.1 -0.7125 0.809228 0.0117922 0.566144
0.467897 0.1 0.7125 0.814757 0.0112995 0.628431
0.522865 0.1 0.675 0.810212 0.0119124 0.632546
0.522865 0.1 -0.675 0.804319 0.0122276 0.56361
0.411108 0.1 -0.75 0.812945 0.0115347 0.568566
0.835106 0.1 -0.1875 0.748338 0.0199755 0.575913
0.835107 0.1 0.1875 0.749197 0.0206293 0.620701
0.286844 0.1 0.80701 0.821883 0.0112616 0.613441
0.574156 0.1 0.6375 0.805353 0.0125519 0.636162
0.574157 0.1 -0.6375 0.799261 0.0126912 0.561446
0.350249 0.1 -0.7875 0.816526 0.0112985 0.571361
0.350249 0.1 0.7875 0.820482 0.0106695 0.618811
0.756813 0.1 -0.4125 0.769813 0.0164519 0.560126
0.756814 0.1 0.4125 0.773281 0.0171683 0.639015
0.623803 0.1 -0.6 0.793258 0.0133817 0.559269
0.623803 0.1 0.6 0.799146 0.0134799 0.639199
0.075776 0.1 0.8625 0.814783 0.0138477 0.595928
0.075776 0.1 -0.8625 0.814611 0.0140757 0.583551
0.871687 0.1 -3.2767e-18 0.737898 0.0221643 0.597273
0.287374 0.1 -0.825 0.818813 0.0117691 0.573956
0.871687 0.1 -0.075 0.738265 0.0219267 0.587565
0.871687 0.1 0.075 0.738471 0.0222839 0.607071
0.67013 0.1 -0.5625 0.787065 0.0141043 0.557475
0.67013 0.1 0.5625 0.792638 0.0144166 0.641701
0.835106 0.1 0.2625 0.751867 0.0204512 0.629302
0.835106 0.1 -0.2625 0.750518 0.0195682 0.567685
0.797314 0.1 -0.375 0.761674 0.0177443 0.559796
0.797314 0.1 0.375 0.764363 0.0186691 0.638548
0 0.1 -0.88201 0.809017 0 0.587785
0 0.1 0.88201 0.809017 0 0.587785
0.0363518 0.1 0.88201 0.811758 0.00658043 0.591697
0.0363518 0.1 -0.88201 0.811677 0.00669312 0.585758
0.871687 0.1 0.15 0.73999 0.0222794 0.616787
0.871687 0.1 -0.15 0.739539 0.0215778 0.578126
0.714971 0.1 0.525 0.78501 0.015597 0.643515
0.714971 0.1 -0.525 0.780015 0.0150369 0.555782
0.219993 0.1 0.8625 0.823399 0.0118548 0.607864
0.219992 0.1 -0.8625 0.821021 0.0123126 0.57694
0 0.1 0.9 0.809017 0 0.587785
0 0.1 -0.9 0.809017 0 0.587785
0.756813 0.1 0.4875 0.777126 0.0167811 0.644748
0.756814 0.1 -0.4875 0.772743 0.01601 0.554503
0.871687 0.1 0.225 0.742429 0.0221486 0.626244
0.871687 0.1 -0.225 0.741638 0.0211316 0.569119
0.835106 0.1 -0.3375 0.753332 0.0190834 0.559986
0.835106 0.1 0.3375 0.755288 0.0201666 0.63741
0.41063 0.1 0.80701 0.818678 0.0107586 0.624497
0.90582 0.1 -0.0375 0.729753 0.0235675 0.591234
0.905821 0.1 0.0375 0.729797 0.0237903 0.601689
0.522865 0.1 0.746002 0.812255 0.0115525 0.634101
0.150379 0.1 0.9 0.819282 0.0127899 0.602036
0.90582 0.1 0.1125 0.730879 0.0238735 0.612168
0.905821 0.1 -0.1125 0.730725 0.023211 0.580979
0.522865 0.1 -0.75 0.805836 0.0119691 0.561093
0.574156 0.1 0.7125 0.807915 0.0121386 0.638433
0.574156 0.1 -0.7125 0.801087 0.0123973 0.558521
0.797314 0.1 -0.45 0.764861 0.0172386 0.5535
0.797314 0.1 0.45 0.768381 0.0182731 0.64515
0.467897 0.1 -0.7875 0.810411 0.0115682 0.56399
0.467897 0.1 0.7875 0.816341 0.0109801 0.629648
0.150379 0.1 -0.903998 0.818025 0.0131308 0.579836
0 0.1 0.91799 0.809017 0 0.587785
0 0.1 -0.91799 0.809017 0 0.587785
0.0363518 0.1 0.91799 0.811761 0.00656652 0.591687
0.0363518 0.1 -0.91799 0.811684 0.00667774 0.585575
0.623803 0.1 0.675 0.802217 0.0130361 0.642088
0.623803 0.1 -0.675 0.795448 0.0130452 0.555906
0.411108 0.1 -0.825 0.813853 0.0113373 0.56677
0.871687 0.1 0.3 0.745735 0.0218931 0.635271
0.871687 0.1 -0.3 0.744466 0.0205975 0.560654
0.67013 0.1 -0.6375 0.78959 0.0137252 0.553625
0.67013 0.1 0.6375 0.796161 0.0139546 0.645254
0.90582 0.1 -0.1875 0.73267 0.0227326 0.571144
0.90582 0.1 0.1875 0.732992 0.0238106 0.622475
0.350249 0.1 0.8625 0.821282 0.0104473 0.619271
0.350249 0.1 -0.8625 0.817142 0.0111313 0.569887
0.835106 0.1 -0.4125 0.756721 0.0185238 0.552953
0.835106 0.1 0.4125 0.759405 0.0197735 0.644929
0.714971 0.1 -0.6 0.782901 0.0146029 0.551409
0.714971 0.1 0.6 0.788922 0.0151266 0.647801
0.93886 0.1 -1.15648e-17 0.721285 0.0257409 0.595476
0.075776 0.1 0.9375 0.81479 0.0138194 0.595909
0.075776 0.1 -0.9375 0.814625 0.0140442 0.58317
0.93886 0.1 0.075 0.721803 0.025945 0.606665
0.93886 0.1 -0.075 0.721899 0.0253742 0.584424
0.756813 0.1 0.5625 0.781367 0.0163086 0.649813
0.756814 0.1 -0.5625 0.775956 0.0155208 0.549544
0.905821 0.1 -0.2625 0.735445 0.0221627 0.561877
0.905821 0.1 0.2625 0.736096 0.0236021 0.632429
0.287374 0.1 0.9 0.822599 0.0110504 0.613749
0.287374 0.1 -0.903998 0.819181 0.0116463 0.572824
0.871687 0.1 0.375 0.749841 0.0215146 0.643714
0.871687 0.1 -0.375 0.747961 0.0199767 0.552833
0.93886 0.1 -0.15 0.723616 0.0248574 0.573728
0.93886 0.1 0.15 0.723459 0.0259795 0.617788
0.797314 0.1 0.525 0.772891 0.0177876 0.65105
0.797314 0.1 -0.525 0.768409 0.016681 0.547899
0 0.1 0.95701 0.809017 0 0.587785
0 0.1 -0.95701 0.809017 0 0.587785
0.0363518 0.1 0.95701 0.811761 0.00656652 0.591687
0.0363518 0.1 -0.95701 0.811684 0.00667774 0.585575
0.522433 0.1 0.80701 0.813845 0.0112592 0.63525
0.219992 0.1 0.9375 0.823754 0.0117413 0.60789
0.219992 0.1 -0.9375 0.821309 0.0122364 0.57607
0.93886 0.1 0.225 0.72623 0.0258406 0.628639
0.93886 0.1 -0.225 0.726316 0.024225 0.563592
0.90582 0.1 0.3375 0.740111 0.0232527 0.641834
0.905821 0.1 -0.3375 0.73897 0.0214933 0.553235
0.835106 0.1 -0.4875 0.760554 0.0178972 0.546644
0.835107 0.1 0.4875 0.764121 0.0192797 0.651708
0.969689 0.1 -0.0375 0.713073 0.0275705 0.58858
0.969689 0.1 0.0375 0.712924 0.02792 0.600445
0.61613 0.1 0.75 0.805284 0.0125629 0.644374
0.574156 0.1 -0.7875 0.802931 0.0120915 0.55602
0.574156 0.1 0.7875 0.81042 0.0117148 0.64015
0 0.1 0.975 0.809017 0 0.587785
0 0.1 -0.975 0.809017 0 0.587785
0.623803 0.1 -0.75 0.797683 0.0126912 0.553029
0.969689 0.1 -0.1125 0.714444 0.0270362 0.576979
0.969689 0.1 0.1125 0.714019 0.0280784 0.612366
0.522865 0.1 -0.825 0.807351 0.0117004 0.558947
0.67013 0.1 0.7125 0.799758 0.0134426 0.648157
0.67013 0.1 -0.7125 0.792197 0.0133239 0.550323
0.871687 0.1 -0.45 0.752023 0.0192784 0.545778
0.871687 0.1 0.45 0.754664 0.0210168 0.65145
0.467897 0.1 0.8625 0.817866 0.0106647 0.630446
0.467897 0.1 -0.8625 0.811582 0.0113386 0.562157
0.714971 0.1 -0.675 0.785913 0.0141456 0.547644
0.714971 0.1 0.675 0.79301 0.0145881 0.651396
0.93886 0.1 -0.3 0.729845 0.0234897 0.554101
0.93886 0.1 0.3 0.730054 0.0255314 0.639018
0.150379 0.1 0.975 0.819461 0.0127192 0.601986
0.150379 0.1 -0.975 0.818122 0.0130898 0.579268
0.969689 0.1 -0.1875 0.71701 0.0263434 0.565918
0.969689 0.1 0.1875 0.716351 0.0280365 0.624115
0.411108 0.1 0.9 0.820103 0.0104249 0.625126
0.756813 0.1 0.6375 0.785886 0.0157553 0.654149
0.756814 0.1 -0.6375 0.779352 0.0150068 0.545259
0.990306 0.1 -2.19732e-17 0.708188 0.0288083 0.593842
0 0.1 0.99299 0.809017 0 0.587785
0 0.1 -0.99299 0.809017 0 0.587785
0.411108 0.1 -0.903998 0.814605 0.0111598 0.565292
0.990306 0.1 -0.075 0.70901 0.0283178 0.581754
0.990306 0.1 0.075 0.708655 0.0290998 0.606098
0.0363518 0.1 0.99299 0.811764 0.00655266 0.591648
0.0363518 0.1 -0.99299 0.811692 0.00666223 0.585418
0.90582 0.1 -0.4125 0.743201 0.0207296 0.545351
0.905821 0.1 0.4125 0.744964 0.022768 0.650542
0.797314 0.1 -0.6 0.772214 0.0160907 0.543043
0.797314 0.1 0.6 0.777791 0.017213 0.656184
0.350249 0.1 0.9375 0.822057 0.0102255 0.619463
0.350249 0.1 -0.9375 0.817754 0.0109667 0.568629
0.990306 0.1 0.15 0.710418 0.0291843 0.618301
0.990306 0.1 -0.15 0.711097 0.0276444 0.570092
0.969689 0.1 -0.2625 0.720508 0.0255603 0.555563
0.969689 0.1 0.2625 0.719878 0.0277942 0.635477
0.835106 0.1 -0.5625 0.764741 0.0172301 0.541147
0.835106 0.1 0.5625 0.769332 0.0186949 0.6577
0.93886 0.1 -0.375 0.734177 0.0226404 0.545341
0.93886 0.1 0.375 0.734847 0.0250601 0.648732
0.075776 0.1 1.0125 0.814797 0.0137912 0.595827
0.075776 0.1 -1.0125 0.81464 0.0140126 0.582843
0.990306 0.1 -0.225 0.714299 0.0268514 0.5591
0.990306 0.1 0.225 0.71345 0.0290561 0.630224
0.287374 0.1 0.975 0.823154 0.0108834 0.613758
0.287374 0.1 -0.975 0.819716 0.011526 0.571819
0.871687 0.1 -0.525 0.75653 0.0185273 0.53958
0.871687 0.1 0.525 0.760101 0.0204093 0.658358
1.02149 0.1 -0.0369628 0.698536 0.0309287 0.586112
1.02149 0.1 0.0369628 0.698283 0.0314064 0.598921
0.969689 0.1 -0.3375 0.72481 0.024647 0.54589
0.969689 0.1 0.3375 0.724516 0.027359 0.646235
1.02149 0.1 -0.110888 0.700149 0.0302351 0.573586
1.02149 0.1 0.110888 0.699412 0.0316637 0.611811
0.90582 0.1 0.4875 0.75055 0.0221516 0.658448
0.90582 0.1 -0.4875 0.747972 0.0198923 0.538376
0.623803 0.1 0.819003 0.80745 0.0122209 0.646469
0 0.1 1.03201 0.809017 0 0.587785
0 0.1 -1.03201 0.809017 0 0.587785
0.0363518 0.1 1.03201 0.811764 0.00655266 0.591648
0.0363518 0.1 -1.03201 0.811692 0.00666223 0.585418
0.67013 0.1 -0.7875 0.794829 0.012913 0.547555
0.67013 0.1 0.7875 0.803325 0.0129031 0.650388
0.623803 0.1 -0.825 0.799921 0.0123298 0.550628
0.990306 0.1 -0.3 0.718406 0.0259493 0.548817
0.990306 0.1 0.3 0.717686 0.0287182 0.641645
0.219992 0.1 -1.0125 0.821602 0.0121594 0.575328
0.219993 0.1 1.0125 0.824088 0.0116322 0.607764
0.574156 0.1 0.8625 0.812836 0.0112904 0.641321
0.574157 0.1 -0.8625 0.804765 0.0117794 0.553935
0.714971 0.1 -0.75 0.788982 0.013675 0.544486
0.714971 0.1 0.75 0.797153 0.0140014 0.654267
1.02149 0.1 0.184814 0.701912 0.0316878 0.624544
1.02149 0.1 -0.184814 0.70309 0.0293579 0.561695
0.756814 0.1 -0.7125 0.782844 0.0144766 0.541653
0.756814 0.1 0.7125 0.790563 0.0151323 0.657714
0.522865 0.1 0.9 0.816255 0.0108015 0.636254
0.93886 0.1 -0.45 0.73922 0.021696 0.537505
0.93886 0.1 0.45 0.74051 0.024434 0.657642
1.04168 0.1 0 0.692341 0.0327441 0.591692
1.04168 0.1 -0.0729162 0.693339 0.0320968 0.578693
1.04168 0.1 0.0729162 0.692737 0.033162 0.604876
0.522865 0.1 -0.903998 0.808634 0.011459 0.557226
0.797314 0.1 -0.675 0.776167 0.0154844 0.538938
0.797314 0.1 0.675 0.782955 0.0165549 0.660497
0.467897 0.1 0.9375 0.819342 0.0103524 0.630849
0.467897 0.1 -0.9375 0.812734 0.0111071 0.560628
0 0.1 1.05 0.809017 0 0.587785
0 0.1 -1.05 0.809017 0 0.587785
0.835106 0.1 -0.6375 0.769133 0.0165449 0.536478
0.835106 0.1 0.6375 0.774928 0.0180111 0.66282
1.04168 0.1 -0.145832 0.695703 0.031234 0.566164
1.04168 0.1 0.145832 0.694534 0.0333414 0.618032
1.02149 0.1 -0.25874 0.707096 0.0284298 0.55064
1.02149 0.1 0.25874 0.705733 0.0314764 0.636888
0.969689 0.1 -0.4125 0.730057 0.0236033 0.537076
0.969689 0.1 0.4125 0.730164 0.0267461 0.656189
0.411108 0.1 0.975 0.821207 0.0101579 0.625267
0.411108 0.1 -0.975 0.815625 0.0109391 0.563973
0.871687 0.1 -0.6 0.761346 0.0177513 0.534291
0.871687 0.1 0.6 0.766023 0.0196988 0.664356
1.0579 0.1 -0.0360525 0.687756 0.0337269 0.584239
1.0579 0.1 0.0360525 0.687391 0.034307 0.597618
0.990306 0.1 -0.375 0.723442 0.0249028 0.539315
0.990306 0.1 0.375 0.723027 0.0281818 0.652349
0.150379 0.1 1.05 0.819632 0.012651 0.601832
0.150379 0.1 -1.05 0.818278 0.0130357 0.578774
1.0579 0.1 0.108157 0.688445 0.0346479 0.611093
1.0579 0.1 -0.108157 0.689512 0.0329111 0.571154
1.04168 0.1 -0.218749 0.699306 0.0302583 0.554417
1.04168 0.1 0.218749 0.697702 0.0332733 0.630923
0.90582 0.1 -0.5625 0.753183 0.019025 0.532384
0.90582 0.1 0.5625 0.756759 0.0214207 0.665376
0 0.1 -1.06799 0.809017 0 0.587785
0 0.1 1.06799 0.809017 0 0.587785
0.0363518 0.1 -1.06799 0.811701 0.00664907 0.585285
0.0363518 0.1 1.06799 0.811768 0.00653801 0.59158
0.350249 0.1 1.0125 0.822793 0.0100068 0.619401
0.350249 0.1 -1.0125 0.818358 0.0108022 0.567583
1.0579 0.1 -0.180262 0.692613 0.0318911 0.558739
1.0579 0.1 0.180262 0.690907 0.0347336 0.624432
1.02149 0.1 -0.332665 0.712009 0.0273384 0.54023
1.02149 0.1 0.332665 0.710792 0.0310341 0.648625
0.93886 0.1 -0.525 0.7448 0.0206985 0.530733
0.93886 0.1 0.525 0.746921 0.0236683 0.6656
1.08012 0.1 5.49329e-18 0.680572 0.0360199 0.589909
1.04168 0.1 -0.291665 0.703935 0.0291798 0.543431
1.04168 0.1 0.291665 0.702178 0.0329571 0.643321
1.08012 0.1 0.0709941 0.680878 0.0365446 0.603699
1.08012 0.1 -0.0709941 0.681697 0.0352476 0.576315
0.969689 0.1 -0.4875 0.735954 0.0224776 0.529422
0.96969 0.1 0.4875 0.736706 0.0259597 0.665232
1.0579 0.1 0.252367 0.69473 0.0345602 0.637395
1.0579 0.1 -0.252367 0.696885 0.0308395 0.547235
0.990306 0.1 -0.45 0.729321 0.023744 0.530891
0.990306 0.1 0.45 0.72936 0.0274572 0.662174
0.287374 0.1 -1.05 0.820163 0.0114037 0.571003
0.287374 0.1 1.05 0.823679 0.0107229 0.613574
0.714971 0.1 0.821002 0.800894 0.0134479 0.65638
1.08012 0.1 -0.141988 0.684216 0.0342386 0.563207
1.08012 0.1 0.141988 0.682625 0.0368112 0.617481
0.075776 0.1 1.0875 0.814805 0.0137613 0.595685
0.075776 0.1 -1.0875 0.814659 0.0139859 0.582567
0.714971 0.1 -0.825 0.792049 0.0132015 0.541916
0.756813 0.1 -0.7875 0.78636 0.0139413 0.538705
0.756814 0.1 0.7875 0.795258 0.0144641 0.660476
0.67013 0.1 -0.8625 0.797444 0.0125003 0.54531
0.67013 0.1 0.8625 0.806793 0.0123574 0.651951
0.797314 0.1 -0.75 0.780176 0.0148723 0.535572
0.797314 0.1 0.75 0.788248 0.0158319 0.663956
0.623803 0.1 0.9 0.811176 0.0115949 0.647123
0.835106 0.1 -0.7125 0.773634 0.0158545 0.53263
0.835106 0.1 0.7125 0.780761 0.0172434 0.667029
0.623803 0.1 -0.903998 0.801842 0.0120097 0.548756
0.574156 0.1 0.9375 0.815158 0.0108717 0.641966
0.574156 0.1 -0.9375 0.806564 0.0114657 0.552245
1.02149 0.1 -0.406591 0.718012 0.0260808 0.530758
1.02149 0.1 0.406591 0.716969 0.0303765 0.659536
1.08012 0.1 -0.212982 0.688042 0.0331114 0.550933
1.08012 0.1 0.212982 0.685784 0.0368073 0.631015
1.10076 0.1 -0.0349809 0.67396 0.0376549 0.581875
1.10076 0.1 0.0349809 0.673497 0.038371 0.595949
0.871687 0.1 -0.675 0.766328 0.0169684 0.529908
0.871687 0.1 0.675 0.772282 0.0188922 0.669395
1.04168 0.1 -0.364581 0.70959 0.0279187 0.533228
1.04168 0.1 0.364581 0.707862 0.0324022 0.655005
1.10076 0.1 -0.104943 0.675864 0.0366828 0.568093
1.10076 0.1 0.104943 0.674506 0.0388301 0.610135
0.522865 0.1 0.975 0.818113 0.0104365 0.636563
0.522865 0.1 -0.975 0.810308 0.0111533 0.555715