0 	-0.144898
0.0012616 	-0.144887
0.0025232 	-0.144869
0.00254642 	-0.144869
0.00256965 	-0.144868
0.00352477 	-0.144875
0.00447989 	-0.144887
0.00483316 	-0.144933
0.00518642 	-0.14498
0.00649473 	-0.145039
0.00780303 	-0.145347
0.00782711 	-0.145356
0.00785119 	-0.145366
0.00884167 	-0.145451
0.00983216 	-0.145559
0.0101985 	-0.145763
0.0105648 	-0.145967
0.0119465 	-0.146166
0.0133283 	-0.146794
0.0147099 	-0.147085
0.0160915 	-0.14779
0.0161169 	-0.147809
0.0161424 	-0.147828
0.0171883 	-0.148115
0.0182343 	-0.148427
0.0186212 	-0.148729
0.0190081 	-0.14903
0.0204672 	-0.1495
0.0219263 	-0.150342
0.0233854 	-0.150848
0.0248444 	-0.151649
0.0248713 	-0.151669
0.0248981 	-0.151688
0.0260027 	-0.152068
0.0271073 	-0.152464
0.0275159 	-0.152727
0.0279244 	-0.152991
0.0294653 	-0.153467
0.0310063 	-0.154156
0.0325754 	-0.154518
0.0341446 	-0.155049
0.0357425 	-0.155251
0.0373405 	-0.155585
0.0389677 	-0.155615
0.040595 	-0.155742
0.0422521 	-0.155596
0.0439092 	-0.155493
0.0455662 	-0.155193
0.0472232 	-0.154868
0.0472537 	-0.154861
0.0472842 	-0.154855
0.0485386 	-0.15452
0.0497931 	-0.154179
0.0502571 	-0.154016
0.0507211 	-0.153853
0.052471 	-0.153206
0.054221 	-0.152442
0.056003 	-0.15163
0.0577851 	-0.150681
0.0595998 	-0.149757
0.0614146 	-0.148682
0.0629797 	-0.147834
0.0645449 	-0.146902
0.0648277 	-0.146701
0.0651106 	-0.1465
0.0667385 	-0.145607
0.0683663 	-0.144593
0.0686204 	-0.144401
0.0688745 	-0.144208
0.0707563 	-0.143184
0.0726381 	-0.141897
0.0726727 	-0.141869
0.0727073 	-0.141842
0.074132 	-0.141062
0.0755567 	-0.140262
0.0760836 	-0.139824
0.0766105 	-0.139386
0.0785979 	-0.138285
0.0805853 	-0.136836
0.0825725 	-0.135747
0.0845598 	-0.134298
0.0845964 	-0.134266
0.0846329 	-0.134234
0.0861374 	-0.13344
0.0876419 	-0.13262
0.0881984 	-0.132128
0.0887548 	-0.131636
0.0908536 	-0.130585
0.0929523 	-0.129072
0.0950896 	-0.128057
0.0972268 	-0.126542
0.0994033 	-0.125548
0.10158 	-0.124027
0.103796 	-0.123041
0.106012 	-0.12151
0.108269 	-0.120535
0.110526 	-0.118998
0.112825 	-0.118024
0.115123 	-0.116481
0.115755 	-0.116214
0.116387 	-0.115948
0.118096 	-0.115227
0.119804 	-0.113938
0.121866 	-0.113062
0.123928 	-0.11189
0.12425 	-0.111623
0.124571 	-0.111356
0.126999 	-0.110313
0.129426 	-0.108733
0.131897 	-0.107664
0.134369 	-0.106081
0.136886 	-0.104981
0.139403 	-0.1034
0.141574 	-0.102435
0.143745 	-0.101266
0.144137 	-0.100976
0.14453 	-0.100687
0.14453 	-0.100687
0.146701 	-0.0996983
0.148873 	-0.0985566
0.149312 	-0.0982494
0.14975 	-0.0979422
0.152408 	-0.0967021
0.155066 	-0.0951779
0.157773 	-0.093895
0.16048 	-0.0924297
0.163237 	-0.0911392
0.165993 	-0.0897735
0.1688 	-0.0885228
0.171607 	-0.0873032
0.174466 	-0.0861292
0.177324 	-0.0850886
0.180235 	-0.0840128
0.183146 	-0.0831614
0.183146 	-0.0831614
0.186111 	-0.082188
0.189075 	-0.0815201
0.192094 	-0.0806361
0.195113 	-0.0801339
0.198187 	-0.0793103
0.201261 	-0.0789443
0.204391 	-0.0781516
0.207522 	-0.077892
0.21071 	-0.0771218
0.213898 	-0.076955
0.217144 	-0.0762123
0.22039 	-0.0761249
0.223696 	-0.0754012
0.227002 	-0.0753721
0.230369 	-0.0746514
0.233735 	-0.0746637
0.237164 	-0.0739378
0.240592 	-0.0739762
0.244083 	-0.073221
0.247574 	-0.073253
0.247574 	-0.073253
0.251129 	-0.0724217
0.254685 	-0.0723701
0.258305 	-0.0714355
0.261925 	-0.0712068
0.265612 	-0.0702726
0.269299 	-0.0699566
0.272986 	-0.069424
0.276672 	-0.0694623
0.27674 	-0.0694716
0.276808 	-0.0694809
0.279599 	-0.0697997
0.28239 	-0.070154
0.283422 	-0.0705366
0.284454 	-0.0709191
0.288348 	-0.072462
0.292241 	-0.074337
0.296134 	-0.0763487
0.300028 	-0.0783529
0.300099 	-0.0783897
0.300171 	-0.0784265
0.303118 	-0.0798102
0.306066 	-0.0811701
0.307156 	-0.0815036
0.308246 	-0.0818371
0.312283 	-0.0832216
0.316321 	-0.0839589
0.316395 	-0.0839628
0.316469 	-0.0839666
0.319526 	-0.0846668
0.322582 	-0.0853187
0.323713 	-0.085217
0.324843 	-0.0851153
0.329107 	-0.0859886
0.333371 	-0.0862077
0.337713 	-0.0873763
0.342055 	-0.0880525
0.346476 	-0.0897423
0.350898 	-0.091069
0.355319 	-0.0933129
0.359741 	-0.0952908
0.359822 	-0.0953232
0.359903 	-0.0953556
0.364489 	-0.098122
0.369074 	-0.100614
0.372483 	-0.10282
0.375891 	-0.105004
0.377152 	-0.105658
0.378413 	-0.106311
0.378413 	-0.106311
0.383168 	-0.1094
0.387923 	-0.111997
0.392765 	-0.114998
0.397608 	-0.11739
0.402539 	-0.120127
0.40747 	-0.122278
0.412099 	-0.124429
0.416729 	-0.126337
0.417121 	-0.126474
0.417513 	-0.126611
0.422626 	-0.128483
0.42774 	-0.130612
0.431854 	-0.131837
0.435968 	-0.133344
0.437061 	-0.134049
0.438155 	-0.134753
0.443458 	-0.136356
0.448761 	-0.139672
0.453739 	-0.14157
0.458718 	-0.145034
0.45914 	-0.145486
0.459561 	-0.145938
0.463906 	-0.148079
0.46825 	-0.150858
0.469405 	-0.152285
0.47056 	-0.153712
0.47616 	-0.156962
0.48176 	-0.162585
0.487463 	-0.166041
0.493165 	-0.171746
0.498973 	-0.174839
0.50478 	-0.179946
0.510694 	-0.181873
0.516608 	-0.185466
0.52216 	-0.185401
0.527712 	-0.186202
0.528183 	-0.186357
0.528653 	-0.186512
0.534786 	-0.183793
0.540918 	-0.181731
0.545852 	-0.177183
0.550786 	-0.172673
0.552098 	-0.171515
0.553409 	-0.170357
0.559272 	-0.162453
0.565136 	-0.15422
0.565632 	-0.15349
0.566129 	-0.152759
0.572605 	-0.142192
0.579082 	-0.130566
0.584292 	-0.121338
0.589502 	-0.111692
0.590887 	-0.108677
0.592272 	-0.105661
0.598989 	-0.0938799
0.605705 	-0.0802044
0.61201 	-0.0702963
0.618316 	-0.0588746
0.61885 	-0.0577541
0.619384 	-0.0566336
0.619928 	-0.0559437
0.620471 	-0.0552538
0.626892 	-0.0471071
0.633314 	-0.036949
0.637809 	-0.0327846
0.642305 	-0.0286202
0.643412 	-0.0275943
0.64452 	-0.0261276
0.646009 	-0.0241552
0.647499 	-0.0221827
0.654722 	-0.0178258
0.661944 	-0.0123271
0.669299 	-0.00987894
0.676655 	-0.00670661
0.68356 	-0.00565697
0.690465 	-0.00437633
0.69105 	-0.00424449
0.691635 	-0.00411266
0.699262 	-0.00381842
0.70689 	-0.00355253
0.713841 	-0.00384491
0.720793 	-0.0042767
0.721609 	-0.00435098
0.722424 	-0.00442526
0.730334 	-0.00509644
0.738244 	-0.00603002
0.744824 	-0.00667409
0.751404 	-0.00739878
0.752879 	-0.00761341
0.754354 	-0.00782805
0.761695 	-0.00854015
0.769037 	-0.00934009
0.769898 	-0.00944882
0.770759 	-0.00955755
0.779112 	-0.0102817
0.787465 	-0.0110809
0.795971 	-0.0117008
0.804478 	-0.0123457
0.812464 	-0.0128046
0.82045 	-0.0132561
0.821126 	-0.0132936
0.821802 	-0.0133311
0.828771 	-0.0136127
0.83574 	-0.0138822
0.837592 	-0.0139408
0.839445 	-0.0139994
0.846783 	-0.014176
0.854121 	-0.0143149
0.855766 	-0.0143216
0.857411 	-0.0143283
0.866558 	-0.0144316
0.875706 	-0.0143587
0.885021 	-0.0143856
0.894337 	-0.0141983
0.901831 	-0.0141908
0.909325 	-0.0141225
0.911317 	-0.0140385
0.91331 	-0.0139546
0.92297 	-0.0139566
0.93263 	-0.013724
0.940667 	-0.0137751
0.948703 	-0.0137376
0.950504 	-0.0136718
0.952305 	-0.013606
0.961271 	-0.0137508
0.970237 	-0.0137381
0.971289 	-0.01371
0.972341 	-0.0136818
0.980675 	-0.013912
0.989009 	-0.0140538
0.990877 	-0.0140284
0.992745 	-0.014003
1.00204 	-0.014367
1.01134 	-0.0145836
1.01243 	-0.014584
1.01352 	-0.0145845
1.0241 	-0.0151094
1.03468 	-0.0154161
1.04545 	-0.0160409
1.05623 	-0.0164643
1.0672 	-0.0171619
1.07817 	-0.0176778
1.08934 	-0.0184156
1.10051 	-0.018993
1.10051 	-0.018993
1.11189 	-0.019737
1.12327 	-0.0203423
1.13485 	-0.0210605
1.14644 	-0.0216618
1.15824 	-0.0223277
1.17004 	-0.0228968
1.18205 	-0.0234909
1.19407 	-0.024006
1.2063 	-0.0245168
1.21854 	-0.0249632
1.23077 	-0.0253791
1.243 	-0.0257452
1.24323 	-0.0257512
1.24345 	-0.0257572
1.25272 	-0.026004
1.26198 	-0.0262479
1.2654 	-0.0263182
1.26883 	-0.0263885
1.28152 	-0.0266421
1.2942 	-0.0268595
1.29444 	-0.0268629
1.29467 	-0.0268664
1.30428 	-0.0270026
1.31388 	-0.0271367
1.31743 	-0.0271709
1.32099 	-0.0272051
1.33439 	-0.0273293
1.34778 	-0.0274219
1.35934 	-0.0274822
1.3709 	-0.0275286
1.37298 	-0.0275316
1.37507 	-0.0275346
1.38709 	-0.0275581
1.39911 	-0.0275664
1.40099 	-0.0275634
1.40286 	-0.0275603
1.41701 	-0.0275515
1.43116 	-0.0275149
1.44531 	-0.0274779
1.45946 	-0.0274155
1.45972 	-0.027414
1.45998 	-0.0274124
1.47069 	-0.0273683
1.4814 	-0.0273224
1.48537 	-0.0272936
1.48933 	-0.0272647
1.50427 	-0.0271865
1.51921 	-0.027082
1.53443 	-0.0269901
1.54965 	-0.0268722
1.56486 	-0.0267718
1.58008 	-0.0266475
1.58036 	-0.0266449
1.58064 	-0.0266422
1.59216 	-0.0265618
1.60368 	-0.0264797
1.60794 	-0.0264382
1.6122 	-0.0263967
1.62827 	-0.0262809
1.64434 	-0.0261406
1.6607 	-0.0260201
1.67707 	-0.0258756
1.69373 	-0.0257526
1.7104 	-0.0256062
1.72737 	-0.0254804
1.74434 	-0.0253318
1.76162 	-0.0252052
1.7789 	-0.0250566
1.7965 	-0.0249283
1.81409 	-0.0247788
1.83202 	-0.0246505
1.84994 	-0.0245018
1.86819 	-0.024373
1.88644 	-0.0242244
1.90502 	-0.0240954
1.9236 	-0.0239474
1.94219 	-0.0238217
1.96077 	-0.0236789
1.96111 	-0.0236761
1.96146 	-0.0236732
1.96146 	-0.0236732
1.98073 	-0.0235501
2 	-0.0234103
