0 1e-10
0.0012616 0.00745178
0.0025232 0.0144862
0.00254642 0.0146094
0.00256965 0.0147326
0.00352477 0.0139461
0.00447989 0.0131761
0.00483316 0.0130079
0.00518642 0.0128396
0.00649473 0.0120139
0.00780303 0.0113005
0.00782711 0.011289
0.00785119 0.0112776
0.00884167 0.0107877
0.00983216 0.0102998
0.0101985 0.0101331
0.0105648 0.00996645
0.0119465 0.00937443
0.0133283 0.00878656
0.0147099 0.00819434
0.0160915 0.00762787
0.0161169 0.00761783
0.0161424 0.0076078
0.0171883 0.00714192
0.0182343 0.00668045
0.0186212 0.00654108
0.0190081 0.00640171
0.0204672 0.00578828
0.0219263 0.00527588
0.0233854 0.00477905
0.0248444 0.00437821
0.0248713 0.00437228
0.0248981 0.00436634
0.0260027 0.00411249
0.0271073 0.00386376
0.0275159 0.0038081
0.0279244 0.00375244
0.0294653 0.00355557
0.0310063 0.00341301
0.0325754 0.00332506
0.0341446 0.00326991
0.0357425 0.00324843
0.0373405 0.00324436
0.0389677 0.0032529
0.040595 0.00326684
0.0422521 0.0032841
0.0439092 0.0032969
0.0455662 0.00331539
0.0472232 0.00331755
0.0472537 0.00331734
0.0472842 0.00331713
0.0485386 0.0033278
0.0497931 0.00333659
0.0502571 0.00332647
0.0507211 0.00331636
0.052471 0.00332388
0.054221 0.00329392
0.056003 0.00329858
0.0577851 0.00326385
0.0595998 0.00327086
0.0614146 0.00324085
0.0629797 0.00325036
0.0645449 0.00324444
0.0648277 0.00323741
0.0651106 0.00323038
0.0667385 0.00324194
0.0683663 0.00323859
0.0686204 0.00323382
0.0688745 0.00322905
0.0707563 0.00324003
0.0726381 0.0032293
0.0726727 0.00322877
0.0727073 0.00322825
0.074132 0.0032333
0.0755567 0.00323698
0.0760836 0.00322863
0.0766105 0.00322029
0.0785979 0.00321972
0.0805853 0.00319283
0.0825725 0.00317991
0.0845598 0.00313396
0.0845964 0.00313262
0.0846329 0.00313127
0.0861374 0.0031124
0.0876419 0.00309101
0.0881984 0.00306524
0.0887548 0.00303947
0.0908536 0.00300586
0.0929523 0.00293615
0.0950896 0.00290234
0.0972268 0.0028402
0.0994033 0.00281238
0.10158 0.00276377
0.103796 0.00274546
0.106012 0.00271211
0.108269 0.00270546
0.110526 0.00268675
0.112825 0.00269023
0.115123 0.0026821
0.115755 0.00268458
0.116387 0.00268707
0.118096 0.0026938
0.119804 0.00268734
0.121866 0.00269424
0.123928 0.00269285
0.12425 0.00269027
0.124571 0.00268769
0.126999 0.00268296
0.129426 0.002659
0.131897 0.00262959
0.134369 0.00257729
0.136886 0.00251756
0.139403 0.00243545
0.141574 0.00236103
0.143745 0.00227862
0.144137 0.00226065
0.14453 0.00224267
0.146788 0.00214785
0.149045 0.00204881
0.149398 0.00203215
0.14975 0.0020155
0.152408 0.00189213
0.155066 0.00177171
0.157773 0.00163821
0.16048 0.00152198
0.163187 0.00138986
0.165894 0.0012881
0.165943 0.00128669
0.165993 0.00128527
0.168042 0.00120174
0.170091 0.00112052
0.170849 0.00110685
0.171607 0.00109319
0.174466 0.00101289
0.177324 0.000962342
0.180235 0.000914054
0.183146 0.000885752
0.186111 0.00085938
0.189075 0.000846458
0.192094 0.000834451
0.195113 0.000832632
0.198187 0.00082795
0.201261 0.000832629
0.204335 0.000828263
0.207409 0.000833355
0.207465 0.000833591
0.207522 0.000833827
0.209849 0.000828899
0.212176 0.000824637
0.213037 0.000827788
0.213898 0.000830938
0.217144 0.00082158
0.22039 0.000825132
0.223696 0.000820555
0.227002 0.000833086
0.230308 0.000843676
0.233614 0.000877389
0.233674 0.000878358
0.233735 0.000879327
0.236238 0.000903284
0.238741 0.00092994
0.239666 0.00095896
0.240592 0.000987981
0.244083 0.00105641
0.247574 0.00119939
0.251129 0.0013443
0.254685 0.00159222
0.258305 0.00185749
0.261925 0.00221924
0.265612 0.00250969
0.269299 0.00283764
0.272986 0.00301608
0.276672 0.0031698
0.27674 0.00317226
0.276808 0.00317472
0.279599 0.00322714
0.28239 0.00327535
0.283422 0.00326338
0.284454 0.0032514
0.288348 0.00325898
0.292241 0.00320237
0.296134 0.00317844
0.300028 0.0031255
0.300099 0.00312409
0.300171 0.00312268
0.303118 0.00307642
0.306066 0.00302753
0.307156 0.00299077
0.308246 0.00295402
0.312283 0.00280943
0.316321 0.00257268
0.316395 0.00256693
0.316469 0.00256118
0.319526 0.00237864
0.322582 0.00218953
0.323713 0.00207291
0.324843 0.00195629
0.329107 0.00167555
0.333371 0.00135807
0.337713 0.00113416
0.342055 0.000932258
0.346476 0.000796878
0.350898 0.000725005
0.355319 0.000701504
0.359741 0.000795774
0.359822 0.000799284
0.359903 0.000802794
0.364489 0.000922943
0.369074 0.00124321
0.372483 0.00147524
0.375891 0.00172119
0.377152 0.00191095
0.378413 0.00210072
0.383168 0.0026138
0.387923 0.00331865
0.392765 0.00394496
0.397608 0.0046775
0.402539 0.00537342
0.40747 0.0060445
0.412401 0.00671556
0.417331 0.00725916
0.417422 0.00726725
0.417513 0.00727533
0.422626 0.00780335
0.42774 0.00809587
0.431542 0.00834483
0.435343 0.00857848
0.436749 0.00855624
0.438155 0.00853399
0.443458 0.00873233
0.448761 0.00874724
0.454063 0.00883515
0.459366 0.00881007
0.459464 0.00880791
0.459561 0.00880574
0.463576 0.00883444
0.46759 0.00886003
0.469075 0.00884749
0.47056 0.00883494
0.47616 0.00886258
0.48176 0.00891015
0.487463 0.00897215
0.493165 0.00913502
0.498973 0.0092897
0.50478 0.00958795
0.510694 0.00981395
0.516608 0.0101876
0.522522 0.0104111
0.528435 0.0107604
0.528544 0.0107687
0.528653 0.0107771
0.534786 0.0109527
0.540918 0.0112336
0.545478 0.0113045
0.550037 0.0113791
0.551723 0.0114335
0.553409 0.0114879
0.559654 0.0114497
0.565899 0.0114
0.566014 0.011399
0.566129 0.0113979
0.572605 0.0111421
0.579082 0.0108119
0.583896 0.0104559
0.588711 0.0100913
0.590492 0.0098949
0.592272 0.0096985
0.598989 0.00902271
0.605705 0.00815068
0.612421 0.00737902
0.619137 0.00643208
0.61926 0.00641201
0.619384 0.00639194
0.61951 0.00637775
0.619636 0.00636357
0.626475 0.00559302
0.633314 0.00471668
0.638235 0.00425892
0.643156 0.00380115
0.643412 0.0037773
0.643669 0.00375328
0.645584 0.00357391
0.647499 0.00339454
0.654722 0.00290515
0.661944 0.00244675
0.669299 0.00207791
0.676655 0.00172524
0.684009 0.00144557
0.691364 0.00118951
0.691499 0.00118516
0.691635 0.0011808
0.699262 0.000977416
0.70689 0.00081106
0.713608 0.000705324
0.720327 0.000618356
0.721376 0.00061013
0.722424 0.000601904
0.730334 0.000547664
0.738244 0.000524043
0.745066 0.000514182
0.751888 0.000513921
0.753121 0.000517581
0.754354 0.000521242
0.761449 0.000521188
0.768544 0.000525324
0.769652 0.000527164
0.770759 0.000529003
0.779112 0.000522111
0.787465 0.000512997
0.795971 0.000493778
0.804478 0.000464614
0.812983 0.000436075
0.821489 0.000392282
0.821646 0.000391246
0.821802 0.00039021
0.828242 0.000365927
0.834681 0.000340444
0.837063 0.000322503
0.839445 0.000304562
0.847053 0.000277583
0.85466 0.000241909
0.856035 0.000232102
0.857411 0.000222296
0.866558 0.000196408
0.875706 0.000153633
0.885021 0.000136042
0.894337 0.000104894
0.901262 9.73789e-05
0.908187 8.92945e-05
0.910748 8.22657e-05
0.91331 7.52369e-05
0.92297 6.95217e-05
0.93263 5.84878e-05
0.940962 5.60406e-05
0.949294 5.25533e-05
0.950799 5.15213e-05
0.952305 5.04894e-05
0.960971 4.91856e-05
0.969636 4.76152e-05
0.970989 4.72941e-05
0.972341 4.69731e-05
0.980981 4.62228e-05
0.989621 4.54743e-05
0.991183 4.53397e-05
0.992745 4.52051e-05
1.00173 4.46023e-05
1.01072 4.39471e-05
1.01212 4.38299e-05
1.01352 4.37128e-05
1.0241 4.31072e-05
1.03468 4.22963e-05
1.04545 4.1873e-05
1.05623 4.13382e-05
1.0672 4.06809e-05
1.07817 3.99245e-05
1.08934 3.86057e-05
1.10051 3.68855e-05
1.11189 3.57488e-05
1.12327 3.41316e-05
1.13485 3.3507e-05
1.14644 3.25695e-05
1.15824 3.19934e-05
1.17004 3.11813e-05
1.18205 3.07375e-05
1.19407 3.0156e-05
1.2063 2.98275e-05
1.21854 2.94072e-05
1.23077 2.91426e-05
1.243 2.88108e-05
1.24323 2.88037e-05
1.24345 2.87966e-05
1.25272 2.86245e-05
1.26198 2.84483e-05
1.2654 2.83539e-05
1.26883 2.82596e-05
1.28152 2.80721e-05
1.2942 2.78328e-05
1.29444 2.78276e-05
1.29467 2.78224e-05
1.30428 2.77063e-05
1.31388 2.75876e-05
1.31743 2.75247e-05
1.32099 2.74619e-05
1.33439 2.73256e-05
1.34778 2.71591e-05
1.35934 2.70687e-05
1.3709 2.69694e-05
1.37298 2.6948e-05
1.37507 2.69267e-05
1.38709 2.68724e-05
1.39911 2.6813e-05
1.40099 2.68023e-05
1.40286 2.67915e-05
1.41701 2.67708e-05
1.43116 2.67442e-05
1.44531 2.67683e-05
1.45946 2.6788e-05
1.45972 2.67883e-05
1.45998 2.67886e-05
1.47069 2.68402e-05
1.4814 2.68915e-05
1.48537 2.69081e-05
1.48933 2.69247e-05
1.50427 2.7021e-05
1.51921 2.71117e-05
1.53443 2.72251e-05
1.54965 2.73346e-05
1.56486 2.74634e-05
1.58008 2.75908e-05
1.58036 2.75932e-05
1.58064 2.75955e-05
1.59216 2.77068e-05
1.60368 2.78182e-05
1.60794 2.78592e-05
1.6122 2.79002e-05
1.62827 2.80749e-05
1.64434 2.82495e-05
1.6607 2.84454e-05
1.67707 2.86412e-05
1.69373 2.88527e-05
1.7104 2.90645e-05
1.72737 2.92909e-05
1.74434 2.9518e-05
1.76162 2.97609e-05
1.7789 3.00047e-05
1.7965 3.0265e-05
1.81409 3.0526e-05
1.83202 3.07997e-05
1.84994 3.10741e-05
1.86819 3.1355e-05
1.88644 3.16372e-05
1.90502 3.19222e-05
1.9236 3.22099e-05
1.94219 3.24829e-05
1.96077 3.2763e-05
1.96111 3.27683e-05
1.96146 3.27735e-05
1.97552 3.28995e-05
1.98959 3.30264e-05
1.9948 3.3079e-05
2 3.31316e-05
