0 	0 	0 	0 	0 	0 	0
0.0012616 	0.00734134 	-5.39199e-05 	0.000739744 	3.09272e-05 	-1.04281e-05 	0.00626127
0.0025232 	0.0145958 	-9.71496e-05 	0.00157004 	6.24706e-05 	-1.62232e-05 	0.0127059
0.00254642 	0.0147281 	-9.77843e-05 	0.00158669 	6.30605e-05 	-1.62601e-05 	0.0128273
0.00256965 	0.0148603 	-9.84191e-05 	0.00160334 	6.36505e-05 	-1.6297e-05 	0.0129487
0.00352477 	0.0177767 	-0.000172796 	0.00182704 	0.000126798 	-2.2173e-05 	0.0155573
0.00447989 	0.0206922 	-0.000246422 	0.00205448 	0.000190048 	-2.75485e-05 	0.0181699
0.00483316 	0.0217643 	-0.000268325 	0.0021651 	0.000214164 	-2.59838e-05 	0.0191658
0.00518642 	0.0228363 	-0.000290228 	0.00227572 	0.00023828 	-2.44191e-05 	0.0201616
0.00649473 	0.0264052 	-0.000458625 	0.00266333 	0.000423782 	-3.68321e-05 	0.0234021
0.00780303 	0.0299842 	-0.000615991 	0.00308153 	0.000612821 	-2.88466e-05 	0.0266443
0.00782711 	0.0300503 	-0.000618722 	0.00308969 	0.000616354 	-2.83923e-05 	0.026704
0.00785119 	0.0301163 	-0.000621453 	0.00309785 	0.000619888 	-2.79381e-05 	0.0267637
0.00884167 	0.0323282 	-0.00077033 	0.00352133 	0.000826458 	-3.61957e-05 	0.0289149
0.00983216 	0.0345437 	-0.00091884 	0.00394496 	0.00103341 	-4.22838e-05 	0.0310634
0.0101985 	0.0353888 	-0.000971154 	0.00410271 	0.00111271 	-2.91343e-05 	0.0318383
0.0105648 	0.036234 	-0.00102347 	0.00426045 	0.001192 	-1.59847e-05 	0.0326133
0.0119465 	0.038687 	-0.00123672 	0.00507344 	0.00156472 	-3.36635e-05 	0.0352369
0.0133283 	0.0412409 	-0.00145144 	0.00586194 	0.0019461 	-3.28501e-06 	0.0377982
0.0147099 	0.043256 	-0.00165688 	0.00687448 	0.00238886 	-2.50959e-05 	0.0401386
0.0160915 	0.0453801 	-0.00187101 	0.0078489 	0.0028414 	8.12309e-06 	0.0424214
0.0161169 	0.0454208 	-0.00187509 	0.00786626 	0.00284988 	9.5636e-06 	0.0424625
0.0161424 	0.0454616 	-0.00187916 	0.00788362 	0.00285836 	1.10041e-05 	0.0425037
0.0171883 	0.0467843 	-0.00202602 	0.00876848 	0.00323353 	-3.36094e-06 	0.0441233
0.0182343 	0.0481134 	-0.00217387 	0.00965065 	0.00360947 	-1.3656e-05 	0.04574
0.0186212 	0.0486507 	-0.00223553 	0.00995786 	0.0037539 	1.14286e-05 	0.0463175
0.0190081 	0.049188 	-0.00229719 	0.0102651 	0.00389833 	3.65131e-05 	0.046895
0.0204672 	0.0508402 	-0.00248968 	0.0116161 	0.00445988 	2.65086e-05 	0.0489891
0.0219263 	0.0525627 	-0.00270229 	0.0129348 	0.00503542 	8.18703e-05 	0.0510649
0.0233854 	0.0540442 	-0.00288332 	0.0143544 	0.00561962 	8.59563e-05 	0.0529994
0.0248444 	0.0555546 	-0.00308583 	0.0157604 	0.00621919 	0.00014716 	0.054953
0.0248713 	0.0555829 	-0.00308989 	0.0157861 	0.00623046 	0.000149147 	0.0549892
0.0248981 	0.0556111 	-0.00309394 	0.0158117 	0.00624173 	0.000151135 	0.0550255
0.0260027 	0.0566026 	-0.00322318 	0.0169002 	0.00669124 	0.000165363 	0.0563553
0.0271073 	0.0575939 	-0.00335394 	0.0179889 	0.00714194 	0.000182927 	0.0576895
0.0275159 	0.0579591 	-0.00341299 	0.0183943 	0.00731709 	0.000213096 	0.0582137
0.0279244 	0.0583243 	-0.00347205 	0.0187996 	0.00749223 	0.000243265 	0.0587379
0.0294653 	0.0595229 	-0.00364225 	0.0202808 	0.0081175 	0.000277211 	0.0603952
0.0310063 	0.0607019 	-0.00383543 	0.0217897 	0.00876409 	0.000354324 	0.0621735
0.0325754 	0.0617347 	-0.00399691 	0.0232147 	0.00938817 	0.000400648 	0.0636776
0.0341446 	0.0627578 	-0.00417806 	0.024689 	0.0100356 	0.000478381 	0.0653469
0.0357425 	0.0636278 	-0.00432498 	0.0260329 	0.0106485 	0.000534122 	0.0667232
0.0373405 	0.0645225 	-0.00448658 	0.0274446 	0.0112864 	0.000607603 	0.0682915
0.0389677 	0.0652488 	-0.00461172 	0.0287013 	0.0118796 	0.000669097 	0.0695623
0.040595 	0.0660452 	-0.00474565 	0.0300363 	0.0124991 	0.000733074 	0.0710272
0.0422521 	0.0666585 	-0.00484347 	0.0312061 	0.0130655 	0.000795328 	0.072199
0.0439092 	0.0673766 	-0.00494372 	0.0324528 	0.0136593 	0.000843851 	0.0735458
0.0455662 	0.067894 	-0.00501145 	0.0335162 	0.0141842 	0.000900117 	0.0745923
0.0472232 	0.0685167 	-0.00507571 	0.0346373 	0.0147353 	0.000928675 	0.0757712
0.0472537 	0.0685298 	-0.00507684 	0.0346588 	0.0147458 	0.000928783 	0.0757949
0.0472842 	0.0685428 	-0.00507798 	0.0346804 	0.0147564 	0.000928891 	0.0758186
0.0485386 	0.0688757 	-0.00511019 	0.0354044 	0.0151213 	0.000963416 	0.0765126
0.0497931 	0.0692143 	-0.00514182 	0.0361308 	0.015488 	0.000995192 	0.077213
0.0502571 	0.06938 	-0.0051494 	0.0364158 	0.0156358 	0.000987432 	0.0775184
0.0507211 	0.0695457 	-0.00515697 	0.0367009 	0.0157836 	0.000979672 	0.0778238
0.052471 	0.0699339 	-0.00518484 	0.0375921 	0.0162492 	0.00101428 	0.0786604
0.054221 	0.0703738 	-0.00519867 	0.0384948 	0.0167406 	0.000992577 	0.0795689
0.056003 	0.0706887 	-0.00521946 	0.0392744 	0.0171752 	0.00101388 	0.0803006
0.0577851 	0.0710156 	-0.00522306 	0.0400492 	0.0176336 	0.0009688 	0.0810811
0.0595998 	0.0712495 	-0.00524262 	0.0407053 	0.0180429 	0.00097688 	0.0817143
0.0614146 	0.0714708 	-0.00524433 	0.0413569 	0.0184728 	0.000911577 	0.0823853
0.0629797 	0.071594 	-0.00526107 	0.0418011 	0.0188038 	0.000907775 	0.0828481
0.0645449 	0.0717086 	-0.00527038 	0.0422512 	0.0191429 	0.000868092 	0.0833252
0.0648277 	0.071726 	-0.0052692 	0.0423348 	0.0192073 	0.000847063 	0.083417
0.0651106 	0.0717433 	-0.00526802 	0.0424184 	0.0192717 	0.000826033 	0.0835088
0.0667385 	0.0717908 	-0.00528346 	0.0427643 	0.0196006 	0.000811227 	0.083932
0.0683663 	0.0718311 	-0.00529258 	0.0431302 	0.0199366 	0.000756593 	0.0843631
0.0686204 	0.0718353 	-0.00529219 	0.043193 	0.0199911 	0.00073672 	0.0844327
0.0688745 	0.0718396 	-0.00529181 	0.0432559 	0.0200455 	0.000716847 	0.0845022
0.0707563 	0.0718084 	-0.00530455 	0.0435548 	0.0204155 	0.00068599 	0.0849708
0.0726381 	0.0717687 	-0.0053111 	0.04391 	0.0207939 	0.000590567 	0.0854255
0.0726727 	0.0717678 	-0.00531113 	0.0439174 	0.020801 	0.000587837 	0.0854336
0.0727073 	0.071767 	-0.00531116 	0.0439248 	0.0208081 	0.000585108 	0.0854418
0.074132 	0.0716886 	-0.00531734 	0.0441145 	0.0210841 	0.000548369 	0.0858188
0.0755567 	0.0716094 	-0.00532344 	0.0443087 	0.0213604 	0.00050794 	0.0861926
0.0760836 	0.0715747 	-0.0053251 	0.0444124 	0.0214646 	0.000466788 	0.0863077
0.0766105 	0.0715401 	-0.00532677 	0.0445161 	0.0215688 	0.000425636 	0.0864228
0.0785979 	0.0713747 	-0.00533508 	0.0447917 	0.0219512 	0.000349235 	0.0870247
0.0805853 	0.0711893 	-0.00534651 	0.0451382 	0.0223343 	0.000227703 	0.0875412
0.0825725 	0.0709952 	-0.00535954 	0.0454703 	0.0227151 	0.000119207 	0.0882426
0.0845598 	0.0707782 	-0.00537853 	0.0458599 	0.0230943 	-1.59248e-05 	0.0888459
0.0845964 	0.0707738 	-0.00537897 	0.0458679 	0.0231012 	-1.88136e-05 	0.0888556
0.0846329 	0.0707695 	-0.00537941 	0.045876 	0.0231082 	-2.17024e-05 	0.0888652
0.0861374 	0.0706235 	-0.00539535 	0.0461825 	0.0233954 	-0.000132366 	0.0894693
0.0876419 	0.0704764 	-0.00541182 	0.046492 	0.0236825 	-0.000243653 	0.090067
0.0881984 	0.0704133 	-0.0054216 	0.0466274 	0.0237875 	-0.000289248 	0.0902431
0.0887548 	0.0703503 	-0.00543139 	0.0467627 	0.0238924 	-0.000334842 	0.0904193
0.0908536 	0.0701713 	-0.00546505 	0.0472605 	0.0242916 	-0.000532771 	0.0913457
0.0929523 	0.0699865 	-0.00550773 	0.0477927 	0.0246878 	-0.000721633 	0.0921945
0.0950896 	0.069843 	-0.00555841 	0.0483492 	0.025092 	-0.000970545 	0.0931914
0.0972268 	0.0697092 	-0.00561693 	0.0489317 	0.0254928 	-0.00119271 	0.094139
0.0994033 	0.0696029 	-0.00568982 	0.049515 	0.0259007 	-0.00149492 	0.095161
0.10158 	0.0695179 	-0.00576796 	0.0501177 	0.0263033 	-0.00175691 	0.0961573
0.103796 	0.0694378 	-0.00586723 	0.0506871 	0.0267124 	-0.00211133 	0.0971579
0.106012 	0.0693805 	-0.00596767 	0.0512675 	0.0271127 	-0.00241767 	0.0981473
0.108269 	0.0693007 	-0.00609419 	0.0517756 	0.02752 	-0.00281977 	0.0990933
0.110526 	0.069236 	-0.00621713 	0.0522844 	0.0279136 	-0.00317142 	0.100032
0.112825 	0.0691201 	-0.00636619 	0.0526848 	0.0283159 	-0.00361385 	0.100909
0.115123 	0.0690149 	-0.00650629 	0.0530822 	0.0286994 	-0.00400677 	0.101779
0.115755 	0.068969 	-0.00655011 	0.0531537 	0.0288063 	-0.00413464 	0.101996
0.116387 	0.0689232 	-0.00659394 	0.0532251 	0.0289131 	-0.0042625 	0.102212
0.118096 	0.0687992 	-0.00671243 	0.0534183 	0.0292021 	-0.00460821 	0.102797
0.119804 	0.0686907 	-0.00681558 	0.0536121 	0.0294674 	-0.0049066 	0.103374
0.121866 	0.0685094 	-0.00695901 	0.0537248 	0.0298057 	-0.00533355 	0.104001
0.123928 	0.0683373 	-0.00709022 	0.0538385 	0.030129 	-0.00573742 	0.104623
0.12425 	0.0683131 	-0.00710723 	0.0538566 	0.0301753 	-0.00579387 	0.104719
0.124571 	0.0682888 	-0.00712423 	0.0538747 	0.0302215 	-0.00585033 	0.104814
0.126999 	0.0680668 	-0.00728466 	0.0538952 	0.0306114 	-0.00635124 	0.105464
0.129426 	0.0678554 	-0.00741416 	0.053913 	0.0309696 	-0.00681615 	0.106104
0.131897 	0.0676529 	-0.00756215 	0.0538585 	0.0313628 	-0.00730981 	0.106667
0.134369 	0.0674529 	-0.0076736 	0.0537937 	0.0317212 	-0.00777982 	0.107216
0.136886 	0.0672954 	-0.00780909 	0.0536956 	0.0321201 	-0.00825158 	0.107675
0.139403 	0.0671376 	-0.00790499 	0.0535827 	0.0324814 	-0.0087169 	0.108107
0.141574 	0.0670462 	-0.00801059 	0.0534818 	0.0328239 	-0.00908933 	0.108404
0.143745 	0.0669602 	-0.00809743 	0.0533745 	0.0331472 	-0.00946862 	0.108679
0.144137 	0.0669467 	-0.00810588 	0.0533527 	0.0331983 	-0.00953982 	0.10872
0.14453 	0.0669333 	-0.00811433 	0.0533309 	0.0332493 	-0.00961102 	0.108762
0.146788 	0.0668861 	-0.00821254 	0.0532263 	0.0336021 	-0.0099593 	0.108984
0.149045 	0.0668569 	-0.00829122 	0.0531165 	0.0339305 	-0.0103277 	0.10917
0.149398 	0.0668575 	-0.00829793 	0.0530978 	0.0339749 	-0.0103909 	0.109189
0.14975 	0.066858 	-0.00830465 	0.0530792 	0.0340192 	-0.0104541 	0.109208
0.152408 	0.0668745 	-0.00841217 	0.052973 	0.0344229 	-0.0108196 	0.109391
0.155066 	0.0669364 	-0.00848947 	0.0528565 	0.034775 	-0.0112464 	0.109489
0.157773 	0.0670348 	-0.00859134 	0.0527637 	0.0351643 	-0.011576 	0.109603
0.16048 	0.0671676 	-0.00867371 	0.0526516 	0.0354975 	-0.0119884 	0.10963
0.163187 	0.067325 	-0.00876622 	0.0525463 	0.0358566 	-0.0122779 	0.109664
0.165894 	0.067489 	-0.00885643 	0.0524079 	0.0361616 	-0.012662 	0.109623
0.165943 	0.0674921 	-0.00885806 	0.0524048 	0.0361664 	-0.0126705 	0.109621
0.165993 	0.0674952 	-0.00885968 	0.0524018 	0.0361712 	-0.012679 	0.109619
0.168042 	0.0676213 	-0.00892636 	0.052286 	0.0364166 	-0.0128741 	0.10958
0.170091 	0.0677467 	-0.00899419 	0.0521674 	0.0366586 	-0.0130763 	0.109536
0.170849 	0.067788 	-0.00902742 	0.0521032 	0.0367234 	-0.0132015 	0.109489
0.171607 	0.0678292 	-0.00906065 	0.0520389 	0.0367882 	-0.0133266 	0.109441
0.174466 	0.0679681 	-0.00915823 	0.0518189 	0.0370935 	-0.0135819 	0.109308
0.177324 	0.0681037 	-0.00929133 	0.0515648 	0.037349 	-0.0139532 	0.10912
0.180235 	0.068196 	-0.00940646 	0.0513181 	0.0376218 	-0.014214 	0.108949
0.183146 	0.0683051 	-0.00956569 	0.0510653 	0.0378533 	-0.0145829 	0.108742
0.186111 	0.0683466 	-0.00970418 	0.0508504 	0.0380923 	-0.0148589 	0.108598
0.189075 	0.0684199 	-0.00988722 	0.0506538 	0.0383012 	-0.0152252 	0.108437
0.192094 	0.0684096 	-0.010049 	0.0505226 	0.0385074 	-0.0155149 	0.108369
0.195113 	0.0684425 	-0.0102498 	0.0504229 	0.0386969 	-0.015873 	0.108312
0.198187 	0.0684138 	-0.0104273 	0.0503966 	0.0388741 	-0.0161674 	0.108331
0.201261 	0.0684404 	-0.0106351 	0.0504135 	0.0390494 	-0.0165086 	0.108404
0.204335 	0.0684431 	-0.0108148 	0.0504755 	0.0391992 	-0.0167916 	0.108476
0.207409 	0.0685089 	-0.0110127 	0.0505923 	0.0393618 	-0.0171002 	0.108643
0.207465 	0.068511 	-0.0110166 	0.0505952 	0.039365 	-0.0171062 	0.108648
0.207522 	0.0685132 	-0.0110206 	0.0505982 	0.0393682 	-0.0171123 	0.108652
0.209849 	0.0685644 	-0.0111519 	0.0506802 	0.0394618 	-0.0173119 	0.108707
0.212176 	0.0686203 	-0.0112837 	0.0507666 	0.0395572 	-0.0175123 	0.108771
0.213037 	0.0686735 	-0.011336 	0.0508294 	0.0396056 	-0.0175911 	0.108854
0.213898 	0.0687267 	-0.0113883 	0.0508923 	0.0396539 	-0.01767 	0.108937
0.217144 	0.068858 	-0.0115578 	0.0509979 	0.0397544 	-0.01792 	0.108968
0.22039 	0.0690539 	-0.0117265 	0.051169 	0.0398979 	-0.0181666 	0.109129
0.223696 	0.0691783 	-0.0118742 	0.0512046 	0.0399655 	-0.0183831 	0.10908
0.227002 	0.069352 	-0.0120187 	0.0512848 	0.0400868 	-0.0185866 	0.109125
0.230308 	0.0693756 	-0.0121225 	0.0511964 	0.0401173 	-0.0187594 	0.108972
0.233614 	0.0694414 	-0.0122303 	0.0511222 	0.0402046 	-0.0189138 	0.10887
0.233674 	0.0694432 	-0.0122323 	0.051121 	0.040207 	-0.0189164 	0.108869
0.233735 	0.0694451 	-0.0122343 	0.0511199 	0.0402095 	-0.0189189 	0.108868
0.236238 	0.069349 	-0.0122663 	0.0509422 	0.040208 	-0.0190144 	0.108667
0.238741 	0.0692562 	-0.0122995 	0.050764 	0.0402105 	-0.0191082 	0.108469
0.239666 	0.0692452 	-0.0123198 	0.0506944 	0.0402396 	-0.0191302 	0.10841
0.240592 	0.0692343 	-0.0123401 	0.0506248 	0.0402687 	-0.0191522 	0.108352
0.244083 	0.0689661 	-0.0123075 	0.0502526 	0.0402455 	-0.0192337 	0.107959
0.247574 	0.0687484 	-0.0123078 	0.0498583 	0.0402856 	-0.0192748 	0.107593
0.251129 	0.0684164 	-0.0121937 	0.0494431 	0.0402611 	-0.0192999 	0.107096
0.254685 	0.0681055 	-0.0121242 	0.0489828 	0.0402983 	-0.0192742 	0.106618
0.258305 	0.0677517 	-0.0119305 	0.0486178 	0.040298 	-0.0192335 	0.10606
0.261925 	0.0673877 	-0.0117901 	0.0481741 	0.0403578 	-0.0191363 	0.105511
0.265612 	0.0669907 	-0.0115203 	0.0478813 	0.0404136 	-0.0190225 	0.10495
0.269299 	0.0665893 	-0.0113082 	0.0474969 	0.0405269 	-0.0188494 	0.104382
0.272986 	0.0661563 	-0.010988 	0.0472686 	0.0406595 	-0.0186639 	0.103876
0.276672 	0.0657328 	-0.0107158 	0.0469698 	0.0408454 	-0.0184207 	0.10335
0.27674 	0.0657251 	-0.0107115 	0.0469632 	0.0408496 	-0.0184153 	0.10334
0.276808 	0.0657174 	-0.0107072 	0.0469566 	0.0408538 	-0.01841 	0.103331
0.279599 	0.065413 	-0.0104437 	0.0468587 	0.0410148 	-0.0182188 	0.103036
0.28239 	0.0651071 	-0.0101824 	0.0467568 	0.0411797 	-0.018024 	0.102739
0.283422 	0.0649831 	-0.0101018 	0.046691 	0.0412684 	-0.0179262 	0.10261
0.284454 	0.0648592 	-0.0100211 	0.0466251 	0.0413572 	-0.0178284 	0.102482
0.288348 	0.064554 	-0.00963763 	0.0466206 	0.0416581 	-0.0175037 	0.102217
0.292241 	0.0641639 	-0.0092782 	0.0465542 	0.042031 	-0.0171424 	0.101878
0.296134 	0.0640415 	-0.00890716 	0.0466487 	0.0423901 	-0.0167864 	0.101697
0.300028 	0.0637985 	-0.00855515 	0.0466896 	0.0428235 	-0.0164319 	0.101413
0.300099 	0.0637922 	-0.00854896 	0.0466895 	0.0428326 	-0.0164254 	0.101407
0.300171 	0.0637859 	-0.00854277 	0.0466895 	0.0428417 	-0.0164189 	0.1014
0.303118 	0.063842 	-0.00830513 	0.0467865 	0.0431375 	-0.0161566 	0.101244
0.306066 	0.0638883 	-0.00806902 	0.0468798 	0.0434385 	-0.015897 	0.101079
0.307156 	0.0638363 	-0.0079926 	0.0468882 	0.0435858 	-0.0158198 	0.100953
0.308246 	0.0637842 	-0.00791618 	0.0468966 	0.0437331 	-0.0157426 	0.100827
0.312283 	0.0640536 	-0.00769452 	0.047018 	0.0441334 	-0.0154443 	0.100477
0.316321 	0.0641727 	-0.00750044 	0.0470732 	0.0446092 	-0.015213 	0.0999615
0.316395 	0.0641726 	-0.00749728 	0.0470732 	0.0446191 	-0.0152098 	0.0999495
0.316469 	0.0641726 	-0.00749412 	0.0470733 	0.044629 	-0.0152065 	0.0999375
0.319526 	0.0645204 	-0.00741634 	0.0471691 	0.0448957 	-0.0150567 	0.0995401
0.322582 	0.0648602 	-0.00734005 	0.04726 	0.0451676 	-0.0149122 	0.0991314
0.323713 	0.0649285 	-0.00732249 	0.0472583 	0.0453054 	-0.0148961 	0.0989005
0.324843 	0.0649969 	-0.00730492 	0.0472565 	0.0454432 	-0.0148801 	0.0986697
0.329107 	0.0656628 	-0.00729235 	0.0474509 	0.0457288 	-0.0147911 	0.0979999
0.333371 	0.0662475 	-0.00728976 	0.0475575 	0.0461066 	-0.0147819 	0.0971808
0.337713 	0.067022 	-0.00732166 	0.0478476 	0.0462961 	-0.0147953 	0.0965394
0.342055 	0.0677365 	-0.00735297 	0.0480279 	0.0465879 	-0.0148697 	0.095794
0.346476 	0.0684497 	-0.00739367 	0.0483728 	0.0466895 	-0.014945 	0.0953261
0.350898 	0.0690929 	-0.00743256 	0.0485793 	0.0469021 	-0.015049 	0.0947923
0.355319 	0.0695583 	-0.00746563 	0.0488557 	0.0469417 	-0.0151217 	0.0945371
0.359741 	0.0699591 	-0.00749867 	0.0490116 	0.0470878 	-0.0151822 	0.0942562
0.359822 	0.0699655 	-0.00749928 	0.0490127 	0.0470921 	-0.0151831 	0.0942506
0.359903 	0.0699719 	-0.00749989 	0.0490137 	0.0470964 	-0.015184 	0.094245
0.364489 	0.0701875 	-0.0075274 	0.0491296 	0.0471093 	-0.0151878 	0.0941155
0.369074 	0.0703664 	-0.00755215 	0.049193 	0.0472217 	-0.0151428 	0.0940168
0.372483 	0.0704239 	-0.00757371 	0.0491613 	0.0472354 	-0.0150673 	0.0939368
0.375891 	0.0704801 	-0.00759489 	0.0491315 	0.0472535 	-0.0149882 	0.0938614
0.377152 	0.0704926 	-0.00760001 	0.0491345 	0.0472905 	-0.0149332 	0.0938657
0.378413 	0.070505 	-0.00760512 	0.0491375 	0.0473276 	-0.0148781 	0.0938699
0.383168 	0.070495 	-0.00765375 	0.0489874 	0.0473798 	-0.0146906 	0.0936627
0.387923 	0.0704609 	-0.00769868 	0.0489072 	0.0474605 	-0.0144685 	0.0935064
0.392765 	0.0703346 	-0.00778206 	0.0486793 	0.0475642 	-0.0142605 	0.0930354
0.397608 	0.070176 	-0.00787069 	0.0485333 	0.0476549 	-0.0140558 	0.0925944
0.402539 	0.069924 	-0.00795874 	0.0482421 	0.0478336 	-0.0138727 	0.0917903
0.40747 	0.0696332 	-0.00806428 	0.0480249 	0.0479586 	-0.0137258 	0.0910608
0.412401 	0.0692461 	-0.0081034 	0.04767 	0.0482327 	-0.0135839 	0.0900408
0.417331 	0.0688224 	-0.00816883 	0.0473659 	0.0484231 	-0.0134961 	0.0891653
0.417422 	0.068814 	-0.00817043 	0.047361 	0.0484254 	-0.0134953 	0.0891514
0.417513 	0.0688057 	-0.00817203 	0.0473562 	0.0484276 	-0.0134945 	0.0891374
0.422626 	0.0683073 	-0.00813028 	0.0469196 	0.0488093 	-0.0134048 	0.0879622
0.42774 	0.0677738 	-0.00811919 	0.0465424 	0.0490776 	-0.0133851 	0.087017
0.431542 	0.0674499 	-0.00802058 	0.0461897 	0.0494235 	-0.0133522 	0.086133
0.435343 	0.0671255 	-0.00792378 	0.0458429 	0.0497615 	-0.0133243 	0.0852636
0.436749 	0.0670019 	-0.0079008 	0.0457564 	0.0498308 	-0.0133493 	0.0850451
0.438155 	0.0668783 	-0.00787781 	0.0456699 	0.0499 	-0.0133743 	0.0848267
0.443458 	0.0665917 	-0.00767865 	0.0451848 	0.0504449 	-0.0133313 	0.0838018
0.448761 	0.0663649 	-0.00750183 	0.0448074 	0.0508612 	-0.0133622 	0.0828411
0.454063 	0.0661949 	-0.00728937 	0.0443859 	0.0514331 	-0.01331 	0.0822112
0.459366 	0.0661367 	-0.00707446 	0.0439995 	0.0518811 	-0.0132812 	0.081416
0.459464 	0.0661373 	-0.00707047 	0.043993 	0.0518875 	-0.0132811 	0.0813988
0.459561 	0.0661379 	-0.00706647 	0.0439864 	0.0518939 	-0.0132809 	0.0813817
0.463576 	0.0660209 	-0.00693376 	0.0437693 	0.0523194 	-0.0132482 	0.0811289
0.46759 	0.0659073 	-0.00679828 	0.0435467 	0.0527364 	-0.0132129 	0.0808618
0.469075 	0.0658897 	-0.00672849 	0.0434254 	0.0528304 	-0.0131812 	0.0806607
0.47056 	0.0658721 	-0.00665871 	0.043304 	0.0529244 	-0.0131495 	0.0804597
0.47616 	0.0657784 	-0.00655071 	0.0431844 	0.0534821 	-0.0131046 	0.0800892
0.48176 	0.0655953 	-0.00638086 	0.0428995 	0.0539159 	-0.01299 	0.0796229
0.487463 	0.0657253 	-0.00634724 	0.0429267 	0.0544452 	-0.0129019 	0.0790037
0.493165 	0.0656837 	-0.00626125 	0.0427828 	0.0548754 	-0.0127512 	0.0784065
0.498973 	0.066003 	-0.00629657 	0.0429037 	0.0553787 	-0.0125912 	0.0775892
0.50478 	0.0661365 	-0.00627842 	0.042915 	0.0558104 	-0.0123631 	0.0768392
0.510694 	0.0665109 	-0.00635182 	0.0430634 	0.0562669 	-0.0121215 	0.075999
0.516608 	0.0667277 	-0.0063699 	0.0431853 	0.0566812 	-0.0117875 	0.0752265
0.522522 	0.0671199 	-0.00640346 	0.0432753 	0.057028 	-0.0114612 	0.0744533
0.528435 	0.0674061 	-0.00641782 	0.0433665 	0.0573569 	-0.0110323 	0.0737322
0.528544 	0.0674098 	-0.00641779 	0.0433682 	0.0573627 	-0.0110228 	0.0737198
0.528653 	0.0674134 	-0.00641777 	0.0433699 	0.0573685 	-0.0110134 	0.0737073
0.534786 	0.0678718 	-0.00636464 	0.0434198 	0.0575317 	-0.0106042 	0.0730192
0.540918 	0.0682354 	-0.00635188 	0.0434501 	0.057675 	-0.0100717 	0.0723763
0.545478 	0.0685899 	-0.00624855 	0.0435459 	0.0575988 	-0.00974691 	0.0720633
0.550037 	0.0689404 	-0.0061492 	0.0436386 	0.0575197 	-0.00941393 	0.0717517
0.551723 	0.0690411 	-0.00614071 	0.0436501 	0.0574703 	-0.00923239 	0.0716468
0.553409 	0.0691419 	-0.00613222 	0.0436616 	0.0574209 	-0.00905086 	0.0715419
0.559654 	0.0695801 	-0.00591577 	0.0439272 	0.0570638 	-0.00863685 	0.0715183
0.565899 	0.0700245 	-0.00571915 	0.0441286 	0.0566461 	-0.00812489 	0.0714762
0.566014 	0.0700328 	-0.00571583 	0.0441313 	0.0566375 	-0.00811399 	0.0714752
0.566129 	0.0700411 	-0.00571251 	0.0441341 	0.0566288 	-0.00810309 	0.0714741
0.572605 	0.0703556 	-0.0054873 	0.0443465 	0.0561178 	-0.00781037 	0.0716705
0.579082 	0.0707226 	-0.00521711 	0.0444967 	0.0555636 	-0.00746589 	0.0717946
0.583896 	0.0707072 	-0.00513851 	0.04437 	0.0551921 	-0.00741838 	0.0717851
0.588711 	0.070695 	-0.00505525 	0.0442427 	0.0548214 	-0.00737112 	0.071771
0.590492 	0.0707126 	-0.00499143 	0.0441908 	0.0546904 	-0.00735536 	0.071733
0.592272 	0.0707303 	-0.00492762 	0.0441389 	0.0545594 	-0.0073396 	0.0716949
0.598989 	0.0702377 	-0.00500628 	0.0435119 	0.0541599 	-0.00750335 	0.0713474
0.605705 	0.0698218 	-0.00501695 	0.0429523 	0.0538409 	-0.0077042 	0.0709961
0.612421 	0.0690655 	-0.0052645 	0.0421423 	0.0535899 	-0.00802423 	0.0706826
0.619137 	0.0684205 	-0.00545343 	0.0414238 	0.0534605 	-0.00837007 	0.0704366
0.61926 	0.0684103 	-0.00545603 	0.041412 	0.05346 	-0.00837683 	0.0704331
0.619384 	0.0684001 	-0.00545862 	0.0414001 	0.0534594 	-0.00838358 	0.0704295
0.61951 	0.0683851 	-0.00546532 	0.0413864 	0.0534575 	-0.00839131 	0.0704312
0.619636 	0.0683701 	-0.00547202 	0.0413727 	0.0534556 	-0.00839904 	0.0704328
0.626475 	0.0675562 	-0.00583587 	0.0406274 	0.0533512 	-0.00881887 	0.070522
0.633314 	0.0668873 	-0.00613292 	0.0399843 	0.0533858 	-0.00922718 	0.0707288
0.638235 	0.0662521 	-0.00641907 	0.0395672 	0.0534207 	-0.00956661 	0.0710358
0.643156 	0.0656169 	-0.00670523 	0.0391502 	0.0534555 	-0.00990605 	0.0713429
0.643412 	0.0655838 	-0.00672014 	0.0391284 	0.0534573 	-0.00992374 	0.0713588
0.643669 	0.065561 	-0.00673085 	0.0391142 	0.0534664 	-0.00993855 	0.071381
0.645584 	0.0653912 	-0.00681086 	0.0390081 	0.053534 	-0.0100491 	0.0715466
0.647499 	0.0652214 	-0.00689087 	0.0389021 	0.0536016 	-0.0101597 	0.0717121
0.654722 	0.0642741 	-0.00725601 	0.0384977 	0.05378 	-0.010635 	0.0722017
0.661944 	0.0634612 	-0.00756341 	0.0382062 	0.0540421 	-0.0110478 	0.072677
0.669299 	0.0626411 	-0.00781911 	0.0380265 	0.0542566 	-0.0113729 	0.073001
0.676655 	0.0619172 	-0.00802928 	0.0379331 	0.0545312 	-0.0116274 	0.0731904
0.684009 	0.0613478 	-0.00816686 	0.0379075 	0.0546746 	-0.0116856 	0.073209
0.691364 	0.0608157 	-0.00827638 	0.0379402 	0.0548549 	-0.0116781 	0.0730749
0.691499 	0.0608065 	-0.00827797 	0.0379417 	0.0548588 	-0.0116769 	0.0730702
0.691635 	0.0607973 	-0.00827956 	0.0379432 	0.0548626 	-0.0116758 	0.0730654
0.699262 	0.060443 	-0.0083702 	0.0378704 	0.0548936 	-0.0115102 	0.0726968
0.70689 	0.0600374 	-0.0084722 	0.0378386 	0.0549242 	-0.0112914 	0.0722146
0.713608 	0.0596939 	-0.00864303 	0.0375527 	0.0548284 	-0.0111453 	0.0715133
0.720327 	0.0592939 	-0.00885904 	0.0372892 	0.0547033 	-0.0109892 	0.0708062
0.721376 	0.0592153 	-0.00890562 	0.0372546 	0.0546754 	-0.010962 	0.0706942
0.722424 	0.0591368 	-0.00895221 	0.0372199 	0.0546476 	-0.0109348 	0.0705822
0.730334 	0.0583608 	-0.00935227 	0.03661 	0.0543911 	-0.0109302 	0.0694312
0.738244 	0.0574732 	-0.00985843 	0.0360804 	0.0540476 	-0.01094 	0.0684516
0.745066 	0.0564918 	-0.0102658 	0.0355399 	0.0537592 	-0.0110297 	0.0675155
0.751888 	0.0554842 	-0.0106934 	0.0350674 	0.0534306 	-0.0111353 	0.0667352
0.753121 	0.0552919 	-0.0107785 	0.0350082 	0.0533557 	-0.0111606 	0.0666543
0.754354 	0.0550995 	-0.0108636 	0.0349491 	0.0532808 	-0.0111858 	0.0665734
0.761449 	0.054075 	-0.0112171 	0.0346187 	0.0529919 	-0.0112438 	0.0658808
0.768544 	0.0530524 	-0.0115713 	0.034363 	0.0526701 	-0.0113252 	0.0653597
0.769652 	0.0528933 	-0.0116267 	0.0343443 	0.0526105 	-0.0113446 	0.0653272
0.770759 	0.0527343 	-0.0116822 	0.0343256 	0.0525509 	-0.011364 	0.0652947
0.779112 	0.0517444 	-0.0120013 	0.0341256 	0.0522962 	-0.0112876 	0.0646029
0.787465 	0.0507877 	-0.0123428 	0.0339542 	0.0520219 	-0.0112482 	0.0640929
0.795971 	0.049992 	-0.0125625 	0.0336465 	0.0518573 	-0.0109819 	0.0631204
0.804478 	0.0492973 	-0.0128099 	0.033277 	0.0517233 	-0.010721 	0.0622348
0.812983 	0.0484963 	-0.0128742 	0.0327801 	0.0515725 	-0.0102986 	0.0609884
0.821489 	0.0478452 	-0.0129357 	0.032211 	0.0514695 	-0.00987434 	0.0597937
0.821646 	0.0478354 	-0.0129367 	0.0321994 	0.0514683 	-0.0098665 	0.0597725
0.821802 	0.0478257 	-0.0129378 	0.0321878 	0.0514672 	-0.00985866 	0.0597512
0.828242 	0.0468689 	-0.0129652 	0.0316665 	0.0512741 	-0.00955039 	0.0586953
0.834681 	0.0459211 	-0.0129911 	0.0311422 	0.0510821 	-0.00924442 	0.0576397
0.837063 	0.0456342 	-0.0129903 	0.0309279 	0.0510183 	-0.00914761 	0.0572519
0.839445 	0.0453473 	-0.0129894 	0.0307135 	0.0509545 	-0.00905079 	0.0568642
0.847053 	0.043999 	-0.013199 	0.0298243 	0.0505587 	-0.00887883 	0.0553914
0.85466 	0.0426844 	-0.0133883 	0.0289353 	0.0501442 	-0.00874661 	0.0539065
0.856035 	0.0424599 	-0.0134146 	0.0287748 	0.050062 	-0.00873807 	0.0536334
0.857411 	0.0422353 	-0.013441 	0.0286142 	0.0499798 	-0.00872953 	0.0533604
0.866558 	0.0410332 	-0.0138025 	0.0272967 	0.0492651 	-0.00870375 	0.0516815
0.875706 	0.0398381 	-0.0141117 	0.0259723 	0.0484749 	-0.00879127 	0.0499455
0.885021 	0.0392436 	-0.0142816 	0.0249199 	0.0475396 	-0.00877782 	0.0488861
0.894337 	0.0386467 	-0.0144132 	0.0238114 	0.046516 	-0.00886436 	0.0477142
0.901262 	0.0386627 	-0.0142965 	0.0235462 	0.0457482 	-0.00880501 	0.047311
0.908187 	0.0386812 	-0.0141766 	0.0232767 	0.0449763 	-0.0087488 	0.0468988
0.910748 	0.0387064 	-0.0141096 	0.0231458 	0.0446618 	-0.00875028 	0.0466829
0.91331 	0.0387315 	-0.0140426 	0.0230148 	0.0443472 	-0.00875176 	0.0464669
0.92297 	0.0390923 	-0.0135388 	0.0230295 	0.0432678 	-0.00858109 	0.0460057
0.93263 	0.0395011 	-0.0129647 	0.022962 	0.0421831 	-0.00839654 	0.0453492
0.940962 	0.0395277 	-0.0123281 	0.0227643 	0.0412418 	-0.0082393 	0.0447602
0.949294 	0.0395297 	-0.0116673 	0.0225227 	0.0403255 	-0.00803957 	0.0440829
0.950799 	0.0395205 	-0.0115386 	0.0224621 	0.0401695 	-0.00798706 	0.0439264
0.952305 	0.0395113 	-0.0114099 	0.0224014 	0.0400135 	-0.00793455 	0.0437699
0.960971 	0.038988 	-0.0107028 	0.0219062 	0.0389744 	-0.00782003 	0.0426928
0.969636 	0.0383757 	-0.00999555 	0.0213822 	0.0379761 	-0.0076294 	0.0415931
0.970989 	0.0382548 	-0.00988509 	0.0212922 	0.0378319 	-0.00757796 	0.0414151
0.972341 	0.0381339 	-0.00977463 	0.0212023 	0.0376878 	-0.00752652 	0.041237
0.980981 	0.0373651 	-0.00913862 	0.0206816 	0.0365155 	-0.00746251 	0.0396422
0.989621 	0.0364945 	-0.00852703 	0.0201699 	0.0353664 	-0.00734892 	0.0380988
0.991183 	0.0362979 	-0.00842592 	0.0200809 	0.0351676 	-0.00730924 	0.0378396
0.992745 	0.0361012 	-0.00832481 	0.0199919 	0.0349688 	-0.00726957 	0.0375805
1.00173 	0.0352381 	-0.00783885 	0.0194203 	0.0335602 	-0.00724569 	0.0358215
1.01072 	0.0342598 	-0.00738651 	0.0189059 	0.0321616 	-0.00721906 	0.0341766
1.01212 	0.0340742 	-0.00732549 	0.0188419 	0.0319461 	-0.00721412 	0.0339524
1.01352 	0.0338887 	-0.00726447 	0.0187779 	0.0317307 	-0.00720918 	0.0337282
1.0241 	0.0326721 	-0.00698075 	0.0180033 	0.0299765 	-0.00728685 	0.0322032
1.03468 	0.0313572 	-0.00673229 	0.0173768 	0.028213 	-0.00743355 	0.0308363
1.04545 	0.0299562 	-0.00665018 	0.0167162 	0.0265167 	-0.00762095 	0.0298898
1.05623 	0.0286995 	-0.00655927 	0.0161151 	0.0247557 	-0.00785627 	0.0287918
1.0672 	0.027373 	-0.00647507 	0.0155975 	0.0231955 	-0.00792706 	0.027873
1.07817 	0.0262556 	-0.00635469 	0.0149648 	0.0215452 	-0.0079785 	0.026574
1.08934 	0.0248697 	-0.00610492 	0.0142448 	0.0201466 	-0.00773425 	0.0254015
1.10051 	0.0234937 	-0.00585425 	0.0133279 	0.0187059 	-0.00746482 	0.0239256
1.11189 	0.0218751 	-0.00545789 	0.012348 	0.0174985 	-0.00699239 	0.0227546
1.12327 	0.0201517 	-0.00509786 	0.0112442 	0.0162926 	-0.00653115 	0.0214186
1.13485 	0.0186183 	-0.00466991 	0.0102591 	0.0152889 	-0.00601258 	0.0204208
1.14644 	0.0169961 	-0.00427633 	0.00924682 	0.0142726 	-0.00553642 	0.0193826
1.15824 	0.0157988 	-0.00387415 	0.00840481 	0.0134459 	-0.00506385 	0.0183973
1.17004 	0.0144976 	-0.0035056 	0.00756406 	0.0125861 	-0.00465076 	0.0174914
1.18205 	0.013596 	-0.0031649 	0.00686846 	0.0119057 	-0.00436858 	0.0162694
1.19407 	0.0126215 	-0.00284601 	0.00615896 	0.0111939 	-0.00413877 	0.0151119
1.2063 	0.0119655 	-0.00259587 	0.00554354 	0.0106411 	-0.00410585 	0.0136944
1.21854 	0.0113121 	-0.00233377 	0.00491173 	0.0100618 	-0.00408995 	0.0122553
1.23077 	0.0109142 	-0.00213935 	0.00441385 	0.00959979 	-0.00407064 	0.0109192
1.243 	0.0105458 	-0.00191735 	0.0038961 	0.0091091 	-0.00402981 	0.00950564
1.24323 	0.0105395 	-0.00191285 	0.00388627 	0.00909964 	-0.00402874 	0.00947846
1.24345 	0.0105331 	-0.00190835 	0.00387644 	0.00909017 	-0.00402766 	0.00945127
1.25272 	0.0104306 	-0.00175145 	0.00364103 	0.00875424 	-0.00384382 	0.00855753
1.26198 	0.0103296 	-0.0015927 	0.00340267 	0.00841703 	-0.00365808 	0.00765705
1.2654 	0.0103033 	-0.00152085 	0.00329352 	0.00828315 	-0.00357591 	0.00727619
1.26883 	0.010277 	-0.001449 	0.00318437 	0.00814926 	-0.00349373 	0.00689533
1.28152 	0.0103138 	-0.00117977 	0.00288136 	0.00766951 	-0.00306769 	0.00580116
1.2942 	0.0103353 	-0.000878132 	0.00252994 	0.00718696 	-0.00262827 	0.00465777
1.29444 	0.0103355 	-0.000872092 	0.00252275 	0.00717804 	-0.00261998 	0.00463598
1.29467 	0.0103356 	-0.000866051 	0.00251555 	0.00716911 	-0.00261169 	0.00461419
1.30428 	0.0101095 	-0.000633203 	0.0022213 	0.00680647 	-0.00231701 	0.00401972
1.31388 	0.00987982 	-0.000400027 	0.00192749 	0.00644317 	-0.00202274 	0.00342769
1.31743 	0.00976896 	-0.000311452 	0.00182185 	0.00630407 	-0.00191682 	0.00322597
1.32099 	0.00965809 	-0.000222877 	0.00171622 	0.00616497 	-0.0018109 	0.00302426
1.33439 	0.00880859 	-1.40097e-05 	0.00141675 	0.00567466 	-0.00154656 	0.0026535