0 	0 	0 	0 	0 	0 	0
0.00128482 	0.00831513 	-8.09868e-05 	0.00154103 	4.65993e-05 	2.13893e-05 	0.00806182
0.00256965 	0.0166303 	-0.000161974 	0.00308205 	9.31987e-05 	4.27786e-05 	0.0161236
0.00387803 	0.0220269 	-0.000287195 	0.00408509 	0.000245792 	7.13496e-05 	0.0212052
0.00518642 	0.0274235 	-0.000412416 	0.00508813 	0.000398385 	9.99205e-05 	0.0262869
0.00651881 	0.0321042 	-0.000607671 	0.00629789 	0.00072003 	0.000148534 	0.031034
0.00785119 	0.0367848 	-0.000802925 	0.00750766 	0.00104167 	0.000197148 	0.0357811
0.00920802 	0.0404525 	-0.00101388 	0.00902012 	0.00152384 	0.000265967 	0.040123
0.0105648 	0.0441203 	-0.00122483 	0.0105326 	0.00200601 	0.000334787 	0.0444649
0.0119465 	0.0469452 	-0.00143039 	0.0123548 	0.00263678 	0.000424564 	0.0484358
0.0133283 	0.0497701 	-0.00163594 	0.0141771 	0.00326754 	0.000514341 	0.0524067
0.0147353 	0.0520714 	-0.00182271 	0.0162313 	0.0040265 	0.000624448 	0.0560034
0.0161424 	0.0543727 	-0.00200947 	0.0182854 	0.00478546 	0.000734555 	0.0596001
0.0175752 	0.0564314 	-0.00216968 	0.0204726 	0.00564902 	0.00086357 	0.0627758
0.0190081 	0.0584901 	-0.00232988 	0.0226597 	0.00651258 	0.000992586 	0.0659515
0.0204672 	0.0604747 	-0.00245623 	0.0248808 	0.00745708 	0.00113995 	0.0686416
0.0219263 	0.0624593 	-0.00258258 	0.0271018 	0.00840159 	0.00128732 	0.0713317
0.0234122 	0.0644178 	-0.00266595 	0.0292542 	0.00940436 	0.00145478 	0.0734957
0.0248981 	0.0663762 	-0.00274931 	0.0314066 	0.0104071 	0.00162224 	0.0756597
0.0264113 	0.0682934 	-0.00278018 	0.0333958 	0.0114469 	0.00181041 	0.0773131
0.0279244 	0.0702106 	-0.00281105 	0.0353851 	0.0124867 	0.00199858 	0.0789666
0.0294653 	0.0720529 	-0.00278255 	0.0371416 	0.0135448 	0.00220314 	0.0801727
0.0310063 	0.0738953 	-0.00275406 	0.038898 	0.0146028 	0.0024077 	0.0813789
0.0325754 	0.075617 	-0.00266724 	0.0403791 	0.0156644 	0.00261731 	0.0822089
0.0341446 	0.0773387 	-0.00258042 	0.0418602 	0.0167261 	0.00282691 	0.0830389
0.0357425 	0.078863 	-0.00244496 	0.043038 	0.0177798 	0.00302507 	0.0835425
0.0373405 	0.0803873 	-0.0023095 	0.0442158 	0.0188334 	0.00322323 	0.0840461
0.0389677 	0.0816065 	-0.00214385 	0.0450712 	0.0198697 	0.00339441 	0.0842508
0.040595 	0.0828256 	-0.00197819 	0.0459265 	0.020906 	0.00356558 	0.0844555
0.0422521 	0.0836396 	-0.00180507 	0.0464653 	0.0219166 	0.00370118 	0.0843954
0.0439092 	0.0844535 	-0.00163195 	0.047004 	0.0229273 	0.00383679 	0.0843354
0.0455967 	0.084828 	-0.00147009 	0.0472824 	0.0239039 	0.00393709 	0.0840824
0.0472842 	0.0852024 	-0.00130823 	0.0475608 	0.0248805 	0.00403739 	0.0838294
0.0490026 	0.0852119 	-0.00116788 	0.0476883 	0.025815 	0.004109 	0.0834976
0.0507211 	0.0852214 	-0.00102753 	0.0478158 	0.0267494 	0.00418061 	0.0831659
0.052471 	0.0850132 	-0.000909994 	0.0479204 	0.0276329 	0.00423022 	0.0828971
0.054221 	0.084805 	-0.000792455 	0.0480251 	0.0285163 	0.00427984 	0.0826284
0.056003 	0.0845192 	-0.000690523 	0.0482198 	0.0293383 	0.00430625 	0.0825408
0.0577851 	0.0842333 	-0.000588591 	0.0484145 	0.0301603 	0.00433266 	0.0824531
0.0595998 	0.0839513 	-0.000491091 	0.0487723 	0.0309053 	0.00432402 	0.0825932
0.0614146 	0.0836693 	-0.000393592 	0.0491302 	0.0316504 	0.00431539 	0.0827333
0.0632626 	0.0834264 	-0.000292754 	0.0496651 	0.0322996 	0.00425329 	0.0830754
0.0651106 	0.0831836 	-0.000191915 	0.0502 	0.0329489 	0.0041912 	0.0834175
0.0669925 	0.0829998 	-8.54787e-05 	0.050872 	0.0334875 	0.00405683 	0.0838742
0.0688745 	0.082816 	2.09576e-05 	0.0515441 	0.0340262 	0.00392246 	0.0843309
0.0707909 	0.0826979 	0.000134533 	0.0522766 	0.0344467 	0.00370496 	0.0847884
0.0727073 	0.0825798 	0.000248109 	0.053009 	0.0348673 	0.00348746 	0.0852458
0.0746589 	0.0825172 	0.000367578 	0.0537093 	0.035171 	0.00318888 	0.0856195
0.0766105 	0.0824546 	0.000487046 	0.0544096 	0.0354746 	0.00289029 	0.0859931
0.0785979 	0.0824115 	0.000606529 	0.0549949 	0.0356743 	0.00252821 	0.0862556
0.0805853 	0.0823684 	0.000726012 	0.0555802 	0.035874 	0.00216613 	0.0865181
0.0826091 	0.0822913 	0.000842246 	0.0560043 	0.0359896 	0.00177341 	0.0866907
0.0846329 	0.0822141 	0.00095848 	0.0564285 	0.0361052 	0.00138068 	0.0868633
0.0866939 	0.0820749 	0.00107416 	0.0566973 	0.036158 	0.00099492 	0.086987
0.0887548 	0.0819358 	0.00118984 	0.056966 	0.0362107 	0.000609163 	0.0871107
0.0908536 	0.0817588 	0.00131211 	0.0571337 	0.0362221 	0.000263235 	0.087228
0.0929523 	0.0815819 	0.00143439 	0.0573014 	0.0362335 	-8.26923e-05 	0.0873452
0.0950896 	0.0814153 	0.00156899 	0.0574379 	0.0362234 	-0.000368553 	0.0874859
0.0972268 	0.0812487 	0.00170359 	0.0575745 	0.0362133 	-0.000654414 	0.0876266
0.0994033 	0.081125 	0.00185201 	0.0577305 	0.0361999 	-0.000873768 	0.0878198
0.10158 	0.0810014 	0.00200043 	0.0578865 	0.0361865 	-0.00109312 	0.088013
0.103796 	0.0809416 	0.00216156 	0.0580849 	0.0361864 	-0.00124585 	0.0882922
0.106012 	0.0808818 	0.0023227 	0.0582832 	0.0361864 	-0.00139857 	0.0885714
0.108269 	0.0809136 	0.00249246 	0.0585237 	0.0362126 	-0.00149082 	0.088958
0.110526 	0.0809454 	0.00266223 	0.0587642 	0.0362388 	-0.00158306 	0.0893446
0.112825 	0.0810918 	0.00282824 	0.0590336 	0.0362989 	-0.00162635 	0.0898563
0.115123 	0.0812383 	0.00299424 	0.059303 	0.036359 	-0.00166964 	0.0903681
0.117464 	0.0814945 	0.00313509 	0.0595854 	0.0364565 	-0.00167284 	0.0910069
0.119804 	0.0817507 	0.00327593 	0.0598678 	0.0365539 	-0.00167604 	0.0916458
0.122188 	0.0820984 	0.0033741 	0.0601547 	0.0366924 	-0.00164093 	0.092386
0.124571 	0.0824461 	0.00347227 	0.0604416 	0.0368309 	-0.00160581 	0.0931263
0.126999 	0.0828782 	0.00352089 	0.0607369 	0.0370158 	-0.0015377 	0.0939148
0.129426 	0.0833104 	0.00356952 	0.0610322 	0.0372007 	-0.0014696 	0.0947033
0.131897 	0.0838045 	0.00356425 	0.0613345 	0.0374329 	-0.00138796 	0.0954779
0.134369 	0.0842986 	0.00355898 	0.0616368 	0.037665 	-0.00130632 	0.0962525
0.136886 	0.0847925 	0.0034962 	0.0619077 	0.0379353 	-0.00123725 	0.0969677
0.139403 	0.0852864 	0.00343342 	0.0621786 	0.0382055 	-0.00116818 	0.0976829
0.141967 	0.0857152 	0.00331806 	0.0623775 	0.0384988 	-0.00112516 	0.0983402
0.14453 	0.086144 	0.0032027 	0.0625764 	0.038792 	-0.00108214 	0.0989974
0.14975 	0.0868062 	0.00290185 	0.0628589 	0.0394057 	-0.00103443 	0.100259
0.155066 	0.0872684 	0.0025716 	0.0631454 	0.0400414 	-0.000991707 	0.101497
0.16048 	0.0875828 	0.00223254 	0.0635628 	0.0406994 	-0.000920681 	0.10275
0.165993 	0.0878735 	0.00188346 	0.0641524 	0.0413812 	-0.000794531 	0.104041
0.171607 	0.0882992 	0.00152137 	0.064859 	0.042082 	-0.000611412 	0.105332
0.177324 	0.0889129 	0.00115211 	0.0656208 	0.0427987 	-0.000400453 	0.106599
0.183146 	0.089587 	0.000773798 	0.0664503 	0.043558 	-0.000206016 	0.107897
0.189075 	0.0901966 	0.000371402 	0.0674041 	0.0444064 	-5.51644e-05 	0.109326
0.195113 	0.0907315 	-4.51012e-05 	0.0684329 	0.0453664 	5.77182e-05 	0.11098
0.201261 	0.0910997 	-0.000428221 	0.0693607 	0.0464358 	0.000159386 	0.112817
0.207522 	0.0911318 	-0.000721437 	0.070066 	0.0475979 	0.000288057 	0.114677
0.213898 	0.09083 	-0.00088588 	0.0705519 	0.0488217 	0.000447247 	0.116482
0.22039 	0.0902708 	-0.000926384 	0.0708399 	0.0500753 	0.000565266 	0.118234
0.220635 	0.0902381 	-0.000925382 	0.0708418 	0.0501218 	0.000563395 	0.118297
0.223819 	0.0898137 	-0.000912357 	0.0708666 	0.050727 	0.000539076 	0.119116
0.227002 	0.0893892 	-0.000899332 	0.0708914 	0.0513322 	0.000514758 	0.119935
0.230244 	0.0887525 	-0.000892463 	0.0707589 	0.0519284 	0.000358745 	0.120683
0.233486 	0.0881158 	-0.000885594 	0.0706264 	0.0525246 	0.000202732 	0.121431
0.233611 	0.0880913 	-0.00088533 	0.0706213 	0.0525475 	0.000196731 	0.12146
0.233735 	0.0880668 	-0.000885065 	0.0706162 	0.0525704 	0.000190731 	0.121489
0.240592 	0.0862695 	-0.000943842 	0.0699904 	0.0537707 	-0.000444168 	0.12264
0.247574 	0.0842583 	-0.00112587 	0.0691715 	0.0549036 	-0.00136205 	0.122923
0.254685 	0.0825301 	-0.00146923 	0.0683063 	0.0559164 	-0.00247884 	0.121882
0.261925 	0.0813763 	-0.00199102 	0.0674398 	0.0567781 	-0.00368896 	0.11961
0.269299 	0.080814 	-0.00272605 	0.066691 	0.0575094 	-0.00489606 	0.116747
0.276808 	0.0807641 	-0.00373646 	0.066211 	0.0581842 	-0.00602933 	0.113873
0.284454 	0.0811047 	-0.00502707 	0.0660629 	0.0588881 	-0.0070342 	0.111137
0.292241 	0.0816659 	-0.00652961 	0.0661949 	0.0596651 	-0.0079041 	0.108639
0.300171 	0.0822563 	-0.00819876 	0.0664955 	0.0605427 	-0.00871168 	0.106733
0.308246 	0.0826535 	-0.0099875 	0.0668677 	0.0615364 	-0.00958419 	0.10564
0.316469 	0.0826129 	-0.0117529 	0.0672293 	0.0626001 	-0.0105974 	0.10533
0.324843 	0.0821904 	-0.013324 	0.0675823 	0.0636179 	-0.0117291 	0.105613
0.333371 	0.0816313 	-0.0146587 	0.0678532 	0.064439 	-0.0129443 	0.10625
0.342055 	0.080913 	-0.015748 	0.0677307 	0.064917 	-0.0142043 	0.107154
0.350898 	0.0797481 	-0.0164952 	0.0669097 	0.0649384 	-0.0154212 	0.10826
0.359903 	0.0782272 	-0.01691 	0.0655576 	0.0644654 	-0.0164446 	0.109667
0.364489 	0.077501 	-0.0170487 	0.064985 	0.0640223 	-0.0167881 	0.110721
0.369074 	0.0767748 	-0.0171875 	0.0644124 	0.0635791 	-0.0171317 	0.111776
0.378413 	0.0752892 	-0.0174028 	0.063951 	0.0625143 	-0.0174211 	0.114268
0.387923 	0.0740081 	-0.0175028 	0.0639546 	0.0615936 	-0.0174127 	0.11579
0.397608 	0.0737392 	-0.0176347 	0.0641563 	0.0610304 	-0.0173352 	0.11598
0.40747 	0.0743587 	-0.0180587 	0.0644069 	0.0608677 	-0.0173876 	0.115518
0.417513 	0.075091 	-0.0188583 	0.0643901 	0.0610319 	-0.0176171 	0.11398
0.42774 	0.0754647 	-0.0198791 	0.0638374 	0.0614304 	-0.0178471 	0.110693
0.438155 	0.0754118 	-0.0208679 	0.0628547 	0.0620799 	-0.0177976 	0.106617
0.448761 	0.0754371 	-0.0217142 	0.0617956 	0.063067 	-0.0173761 	0.103151
0.459561 	0.0762814 	-0.0225411 	0.0609596 	0.0643718 	-0.0167385 	0.100785
0.47056 	0.0780363 	-0.023493 	0.0603978 	0.0658676 	-0.0160655 	0.0994684
0.48176 	0.0799638 	-0.0246319 	0.0597504 	0.0674626 	-0.0155832 	0.0984751
0.493165 	0.0813 	-0.0259893 	0.058511 	0.0690829 	-0.0155402 	0.0966711
0.50478 	0.0816713 	-0.0275052 	0.056292 	0.0706343 	-0.0158352 	0.0936783
0.516608 	0.0812006 	-0.0290199 	0.0532608 	0.0720501 	-0.0159895 	0.0904812
0.528653 	0.0806342 	-0.0303621 	0.0504368 	0.073292 	-0.015686 	0.0883562
0.540918 	0.0804033 	-0.031272 	0.0486001 	0.0743599 	-0.0150118 	0.0875421
0.553409 	0.0798105 	-0.0314743 	0.04762 	0.0754093 	-0.0141605 	0.0876342
0.566129 	0.0782647 	-0.0310126 	0.0470453 	0.0765381 	-0.0132574 	0.0878242
0.579082 	0.0765695 	-0.0301134 	0.0468448 	0.0776339 	-0.0122684 	0.0875379
0.592272 	0.0757752 	-0.0289316 	0.0472435 	0.0784992 	-0.0111304 	0.0868475
0.605705 	0.0755878 	-0.0275491 	0.0478172 	0.0788591 	-0.0100456 	0.0855339
0.619384 	0.0751274 	-0.0260561 	0.04773 	0.0785869 	-0.00920468 	0.0833835
0.633314 	0.0738017 	-0.02457 	0.0463473 	0.0779537 	-0.00829094 	0.0805979
0.647499 	0.071473 	-0.0233162 	0.0436004 	0.0775282 	-0.00692901 	0.077526
0.661944 	0.0685162 	-0.0223073 	0.0399761 	0.0775689 	-0.00505899 	0.0743283
0.676655 	0.0653044 	-0.0212487 	0.0363304 	0.0775847 	-0.00295387 	0.0713273
0.691635 	0.0623999 	-0.0201309 	0.0334602 	0.0767322 	-0.00114661 	0.0691904
0.70689 	0.0602144 	-0.0191377 	0.0317131 	0.0745501 	-0.000124892 	0.0683783
0.722424 	0.0587227 	-0.018413 	0.0309185 	0.0713709 	-0.000240178 	0.0686971
0.738244 	0.0580123 	-0.0180091 	0.0304825 	0.0679826 	-0.00135023 	0.0691314
0.754354 	0.0580182 	-0.0177174 	0.0302261 	0.0648483 	-0.00275042 	0.0686536
0.770759 	0.0580424 	-0.0170411 	0.0303959 	0.0619051 	-0.00365916 	0.0671111
0.787465 	0.0571477 	-0.0156771 	0.0306961 	0.0591617 	-0.00372674 	0.0648622
0.804478 	0.0549128 	-0.0136484 	0.0305441 	0.0568361 	-0.00286186 	0.062439
0.821802 	0.0516824 	-0.0111875 	0.0300712 	0.0550841 	-0.00139122 	0.0601662
0.830623 	0.0499305 	-0.00995842 	0.0298513 	0.0544459 	-0.000695861 	0.0590043
0.839445 	0.0481786 	-0.0087293 	0.0296314 	0.0538077 	-5.06892e-07 	0.0578424
0.857411 	0.0455315 	-0.00662592 	0.0294371 	0.0524649 	0.000969097 	0.0551641
0.875706 	0.0444335 	-0.00539564 	0.0294367 	0.0505198 	0.00125019 	0.0523075
0.894337 	0.0437619 	-0.00527682 	0.0289939 	0.0480653 	0.000746451 	0.0499067
0.91331 	0.0419882 	-0.0057315 	0.0276365 	0.0458872 	-0.000118968 	0.048265
0.93263 	0.0398463 	-0.00638227 	0.0262497 	0.0444754 	-0.000872585 	0.0480116
0.952305 	0.038498 	-0.00740887 	0.0259032 	0.0432475 	-0.00146688 	0.0487511
0.972341 	0.0372344 	-0.00895845 	0.0254808 	0.0417431 	-0.00214722 	0.0479827
0.992745 	0.0355343 	-0.010595 	0.0234446 	0.040146 	-0.00285181 	0.044804
1.01352 	0.0336812 	-0.0118441 	0.0205493 	0.0385285 	-0.00343383 	0.0411744
1.03468 	0.0326756 	-0.0129558 	0.018569 	0.036713 	-0.00427829 	0.0379757
1.05623 	0.0332282 	-0.0141786 	0.0177644 	0.0345014 	-0.00565166 	0.034756
1.07817 	0.0346744 	-0.015184 	0.0178733 	0.0319615 	-0.00681785 	0.0320152
1.08934 	0.0351615 	-0.0153075 	0.0181963 	0.0304899 	-0.00698768 	0.031005
1.10051 	0.0356485 	-0.0154309 	0.0185192 	0.0290183 	-0.00715752 	0.0299948
1.12327 	0.0352921 	-0.0148622 	0.0183579 	0.0257173 	-0.00694509 	0.027976
1.14644 	0.0333994 	-0.0137136 	0.0169504 	0.0224336 	-0.00629122 	0.0248079
1.17004 	0.0295718 	-0.01196 	0.0145531 	0.0192166 	-0.00539611 	0.0207074
1.19407 	0.0244827 	-0.00983876 	0.01141 	0.0160766 	-0.00475262 	0.0169477
1.21854 	0.0196117 	-0.00774478 	0.00838999 	0.0131303 	-0.00425805 	0.0133803
1.24345 	0.0151893 	-0.00584656 	0.00570647 	0.0105725 	-0.00347802 	0.00962631
1.25614 	0.0130442 	-0.00498493 	0.00447384 	0.00954053 	-0.00296051 	0.00796151
1.26883 	0.0108992 	-0.0041233 	0.00324122 	0.00850858 	-0.002443 	0.00629671
1.29467 	0.00716558 	-0.00258596 	0.00147444 	0.00679948 	-0.00150256 	0.00403234
1.32099 	0.00450164 	-0.00140446 	0.000523801 	0.00531799 	-0.000885708 	0.00268957
1.33439 	0.00378178 	-0.001048 	0.000309941 	0.00467809 	-0.000725087 	0.00222667
1.34778 	0.00306193 	-0.000691551 	9.60813e-05 	0.00403819 	-0.000564466 	0.00176377
1.36143 	0.0027269 	-0.000528334 	3.87288e-05 	0.00350872 	-0.000488445 	0.00145378
1.37507 	0.00239187 	-0.000365118 	-1.86236e-05 	0.00297925 	-0.000412424 	0.0011438
1.40286 	0.00194038 	-0.000206639 	1.78588e-05 	0.0021683 	-0.000360376 	0.000778416
1.43116 	0.00163463 	-0.000117805 	3.53682e-05 	0.00162771 	-0.00032112 	0.000580203
1.45998 	0.0014443 	-8.52354e-05 	1.21631e-06 	0.00128761 	-0.000268285 	0.000494262
1.48933 	0.00129195 	-7.49593e-05 	-3.7078e-05 	0.00106074 	-0.000230098 	0.000450848
1.51921 	0.00115747 	-6.33696e-05 	-5.14213e-05 	0.000898733 	-0.000212315 	0.000414266
1.54965 	0.00104 	-5.06137e-05 	-4.64607e-05 	0.000780303 	-0.000204545 	0.000362426
1.58064 	0.000937891 	-4.234e-05 	-3.35813e-05 	0.000689103 	-0.000187261 	0.000276959
1.6122 	0.000850432 	-4.12071e-05 	-1.99153e-05 	0.000604128 	-0.000148091 	0.000182938
1.64434 	0.000774447 	-4.80109e-05 	-1.19266e-05 	0.000515415 	-0.000106448 	0.000125281
1.67707 	0.000709375 	-5.56337e-05 	-1.21143e-05 	0.000435473 	-7.98564e-05 	9.7067e-05
1.69373 	0.000682881 	-5.66807e-05 	-1.344e-05 	0.000403512 	-7.10968e-05 	8.74126e-05
1.7104 	0.000656386 	-5.77276e-05 	-1.47656e-05 	0.00037155 	-6.23373e-05 	7.77582e-05
1.72737 	0.000634263 	-5.72691e-05 	-1.60241e-05 	0.00034523 	-5.57269e-05 	7.03861e-05
1.74434 	0.000612139 	-5.68107e-05 	-1.72825e-05 	0.00031891 	-4.91166e-05 	6.3014e-05
1.7789 	0.000573768 	-5.42425e-05 	-1.93122e-05 	0.000274384 	-3.87347e-05 	5.14619e-05
1.81409 	0.000539758 	-5.08079e-05 	-2.07393e-05 	0.000236567 	-3.04247e-05 	4.23311e-05
1.83202 	0.000524491 	-4.89444e-05 	-2.12246e-05 	0.000220228 	-2.71103e-05 	3.87057e-05
1.84994 	0.000509224 	-4.7081e-05 	-2.17099e-05 	0.000203889 	-2.3796e-05 	3.50803e-05
1.88644 	0.00048167 	-4.37144e-05 	-2.24059e-05 	0.000176009 	-1.86355e-05 	2.9323e-05
1.9236 	0.000457188 	-4.07467e-05 	-2.29791e-05 	0.000151953 	-1.45619e-05 	2.47563e-05
1.96146 	0.000435208 	-3.613e-05 	-2.3399e-05 	0.000131092 	-1.11612e-05 	2.10208e-05
2 	0.000414506 	-3.09995e-05 	-2.33076e-05 	0.000113385 	-8.43442e-06 	1.78685e-05
