0 	-0.378803
0.00128482 	-0.378796
0.00256965 	-0.37879
0.00387803 	-0.378798
0.00518642 	-0.378807
0.00651881 	-0.378851
0.00785119 	-0.378895
0.00920802 	-0.378961
0.0105648 	-0.379027
0.0119465 	-0.379096
0.0133283 	-0.379164
0.0147353 	-0.379211
0.0161424 	-0.379258
0.0175752 	-0.379261
0.0190081 	-0.379265
0.0204672 	-0.379206
0.0219263 	-0.379148
0.0234122 	-0.379016
0.0248981 	-0.378884
0.0264113 	-0.378666
0.0279244 	-0.378449
0.0294653 	-0.378147
0.0310063 	-0.377845
0.0325754 	-0.37746
0.0341446 	-0.377076
0.0357425 	-0.376612
0.0373405 	-0.376147
0.0389677 	-0.37562
0.040595 	-0.375092
0.0422521 	-0.374551
0.0439092 	-0.374009
0.0455967 	-0.373508
0.0472842 	-0.373006
0.0490026 	-0.372589
0.0507211 	-0.372172
0.052471 	-0.371876
0.054221 	-0.371579
0.056003 	-0.371407
0.0577851 	-0.371235
0.0595998 	-0.37117
0.0614146 	-0.371105
0.0632626 	-0.371115
0.0651106 	-0.371125
0.0669925 	-0.371212
0.0688745 	-0.371299
0.0707909 	-0.371465
0.0727073 	-0.37163
0.0746589 	-0.371838
0.0766105 	-0.372046
0.0785979 	-0.372267
0.0805853 	-0.372487
0.0826091 	-0.372699
0.0846329 	-0.372911
0.0866939 	-0.373101
0.0887548 	-0.373291
0.0908536 	-0.373441
0.0929523 	-0.373592
0.0950896 	-0.373677
0.0972268 	-0.373762
0.0994033 	-0.373763
0.10158 	-0.373764
0.134369 	-0.364747
0.136886 	-0.363309
0.139403 	-0.361871
0.141967 	-0.360349
0.14453 	-0.358826
0.14714 	-0.357299
0.14975 	-0.355772
0.152408 	-0.354344
0.155066 	-0.352916
0.157773 	-0.351784
0.16048 	-0.350652
0.163237 	-0.349996
0.165993 	-0.34934
0.1688 	-0.349074
0.171607 	-0.348809
0.174466 	-0.348735
0.177324 	-0.34866
0.180235 	-0.348682
0.183146 	-0.348704
0.186111 	-0.348776
0.189075 	-0.348848
0.192094 	-0.348946
0.195113 	-0.349043
0.198187 	-0.349173
0.201261 	-0.349302
0.204391 	-0.349452
0.207522 	-0.349602
0.21071 	-0.349733
0.213898 	-0.349864
0.217144 	-0.349904
0.22039 	-0.349944
0.223696 	-0.34981
0.227002 	-0.349676
0.230369 	-0.34928
0.233735 	-0.348885
0.237164 	-0.348197
0.240592 	-0.34751
0.244083 	-0.34664
0.247574 	-0.34577
0.251129 	-0.344869
0.254685 	-0.343968
0.258305 	-0.343131
0.261925 	-0.342293
0.265612 	-0.341521
0.269299 	-0.34075
0.273053 	-0.34001
0.276808 	-0.339271
0.280631 	-0.338584
0.284454 	-0.337898
0.288348 	-0.3374
0.292241 	-0.336902
0.296206 	-0.3367
0.300171 	-0.336497
0.304208 	-0.336501
0.308246 	-0.336505
0.312358 	-0.336557
0.316469 	-0.33661
0.320656 	-0.336491
0.324843 	-0.336371
0.329107 	-0.335828
0.333371 	-0.335285
0.337713 	-0.334678
0.342055 	-0.334071
0.346476 	-0.334018
0.350898 	-0.333965
0.355401 	-0.334421
0.359903 	-0.334876
0.364489 	-0.335381
0.369074 	-0.335885
0.373744 	-0.336317
0.378413 	-0.336749
0.383168 	-0.33739
0.387923 	-0.338031
0.392765 	-0.339115
0.397608 	-0.340199
0.402539 	-0.341863
0.40747 	-0.343526
0.412491 	-0.34582
0.417513 	-0.348114
0.417513 	-0.348114
0.422626 	-0.350988
0.422626 	-0.350988
0.42774 	-0.353861
0.42774 	-0.353861
0.432948 	-0.357248
0.438155 	-0.360634
0.443458 	-0.364328
0.448761 	-0.368021
0.454161 	-0.371551
0.459561 	-0.37508
0.46506 	-0.377487
0.47056 	-0.379893
0.47616 	-0.3802
0.48176 	-0.380508
0.487463 	-0.378215
0.493165 	-0.375922
0.498973 	-0.372622
0.50478 	-0.369323
0.50478 	-0.369323
0.510694 	-0.370732
0.510694 	-0.370732
0.516608 	-0.372141
0.516608 	-0.372141
0.52263 	-0.381443
0.528653 	-0.390744
0.534786 	-0.404279
0.540918 	-0.417814
0.547164 	-0.427746
0.553409 	-0.437677
0.559769 	-0.439727
0.566129 	-0.441777
0.572605 	-0.438219
0.579082 	-0.43466
0.585677 	-0.429638
0.592272 	-0.424616
0.598989 	-0.421289
0.605705 	-0.417962
0.612544 	-0.415598
0.619384 	-0.413235
0.626349 	-0.410359
0.633314 	-0.407483
0.640406 	-0.404384
0.647499 	-0.401286
0.654722 	-0.398178
0.661944 	-0.395069
0.669299 	-0.39202
0.676655 	-0.38897
0.684145 	-0.386626
0.691635 	-0.384283
0.699262 	-0.382697
0.70689 	-0.38111
0.714657 	-0.379418
0.722424 	-0.377726
0.730334 	-0.375207
0.738244 	-0.372688
0.746299 	-0.369154
0.754354 	-0.365619
0.762556 	-0.361123
0.770759 	-0.356627
0.779112 	-0.351486
0.787465 	-0.346344
0.795971 	-0.3412
0.804478 	-0.336055
0.81314 	-0.331369
0.821802 	-0.326684
0.830623 	-0.321979
0.839445 	-0.317274
0.848428 	-0.309718
0.857411 	-0.302161
0.866558 	-0.289064
0.875706 	-0.275967
0.885021 	-0.258113
0.894337 	-0.240258
0.903823 	-0.221433
0.91331 	-0.202609
0.92297 	-0.187169
0.93263 	-0.17173
0.942468 	-0.162713
0.952305 	-0.153696
0.962323 	-0.152768
0.972341 	-0.15184
0.982543 	-0.156873
0.992745 	-0.161907
1.00313 	-0.168699
1.01352 	-0.17549
1.0241 	-0.180611
1.03468 	-0.185732
1.04545 	-0.184674
1.05623 	-0.183616
1.0672 	-0.176488
1.07817 	-0.169359
1.08934 	-0.164011
1.10051 	-0.158664
1.11189 	-0.157324
1.12327 	-0.155985
1.13485 	-0.155056
1.14644 	-0.154127
1.15824 	-0.152396
1.17004 	-0.150666
1.18205 	-0.14813
1.19407 	-0.145594
1.2063 	-0.142751
1.21854 	-0.139907
1.23099 	-0.136983
1.24345 	-0.13406
1.25614 	-0.131266
1.26883 	-0.128472
1.28175 	-0.12588
1.29467 	-0.123287
1.30783 	-0.120924
1.32099 	-0.11856
1.33439 	-0.11643
1.34778 	-0.1143
1.34778 	-0.1143
1.36143 	-0.112375
1.37507 	-0.110449
1.38897 	-0.108699
1.40286 	-0.106949
1.41701 	-0.105337
1.43116 	-0.103724
1.44557 	-0.102218
1.45998 	-0.100711
1.47466 	-0.0992834
1.48933 	-0.0978556
1.50427 	-0.0964876
1.51921 	-0.0951196
1.53443 	-0.0937979
1.54965 	-0.0924762
1.56514 	-0.0911925
1.58064 	-0.0899088
1.59642 	-0.0886573
1.6122 	-0.0874058
1.62827 	-0.0861844
1.64434 	-0.0849629
1.6607 	-0.0837683
1.67707 	-0.0825736
1.69373 	-0.0814077
1.7104 	-0.0802418
1.72737 	-0.0791002
1.74434 	-0.0779586
1.76162 	-0.0768475
1.7789 	-0.0757363
1.7965 	-0.074648
1.81409 	-0.0735597
1.83202 	-0.0725035
1.84994 	-0.0714473
1.86819 	-0.0704148
1.88644 	-0.0693824
1.90502 	-0.0683798
1.9236 	-0.0673773
1.94253 	-0.0664036
1.96146 	-0.0654299
1.98073 	-0.064509
2 	-0.0635881
