# wallShearStress  FACE_DATA 60650
# x  y  z  wallShearStress_x  wallShearStress_y  wallShearStress_z
8.75721 0 0.345731 -9.03349e-05 -1.2091e-06 0.00125762
8.72516 0 0.336919 -3.66904e-05 -3.7562e-06 0.00130461
8.69439 0 0.328456 1.17934e-06 -4.97698e-06 0.00133492
8.66483 0 0.320329 2.60703e-05 -6.27073e-06 0.00135236
8.63646 0 0.312526 3.51813e-05 -7.97352e-06 0.00136215
8.6092 0 0.305031 2.36532e-05 -9.51602e-06 0.00136482
8.58303 0 0.297833 -1.25321e-05 -1.19917e-05 0.00135091
8.82531 0 0.430728 -0.000564304 1.79925e-06 0.00103733
8.79057 0 0.419435 -0.000504895 2.99652e-07 0.00114414
8.75721 0 0.408591 -0.000455903 -2.69897e-07 0.0012416
8.72516 0 0.398176 -0.00040449 -1.5793e-06 0.00132658
8.69439 0 0.388175 -0.000360332 -2.23209e-06 0.00139551
8.66483 0 0.378571 -0.00032467 -3.79773e-06 0.00144496
8.63646 0 0.369348 -0.000303644 -6.20518e-06 0.00147647
8.6092 0 0.360491 -0.000298514 -7.99882e-06 0.00148923
8.58303 0 0.351985 -0.00031128 -8.60136e-06 0.00148272
8.5579 0 0.343817 -0.000341725 -9.43994e-06 0.00145199
8.53376 0 0.335973 -0.000385973 -1.065e-05 0.00139207
8.51058 0 0.32844 -0.000439205 -1.25079e-05 0.00129277
8.9384 0 0.539403 -0.00095585 1.38212e-06 0.000436365
8.89917 0 0.52469 -0.000955968 4.34261e-06 0.000559533
8.8615 0 0.510562 -0.00090153 1.78292e-06 0.000703056
8.82531 0 0.496994 -0.000879074 2.57229e-06 0.000834961
8.79057 0 0.483964 -0.000842558 2.04201e-06 0.000965252
8.75721 0 0.471451 -0.000806904 1.98048e-06 0.0010877
8.72516 0 0.459434 -0.00076858 1.45301e-06 0.0012049
8.69439 0 0.447895 -0.000731454 8.59158e-07 0.00131308
8.66483 0 0.436813 -0.000696006 3.53019e-08 0.0014067
8.63646 0 0.426171 -0.000666166 -1.43705e-06 0.00148094
8.6092 0 0.415951 -0.000644832 -2.89288e-06 0.00153471
8.58303 0 0.406136 -0.000635007 -4.91647e-06 0.00156494
8.5579 0 0.396712 -0.000639157 -6.6832e-06 0.00157274
8.53376 0 0.387661 -0.000652048 -8.3627e-06 0.00155602
8.51058 0 0.378969 -0.000668926 -1.03073e-05 0.00150932
8.48833 0 0.370622 -0.000688702 -1.1619e-05 0.00143383
8.46695 0 0.362605 -0.000708453 -1.39768e-05 0.00132328
8.9384 0 0.611323 -0.00115646 4.33831e-06 0.000132158
8.89917 0 0.594649 -0.00117345 5.74948e-06 0.00024524
8.8615 0 0.578636 -0.00115228 3.6185e-06 0.0003909
8.82531 0 0.563259 -0.0011358 3.67522e-06 0.000529291
8.79057 0 0.548492 -0.00111765 3.67168e-06 0.000677041
8.75721 0 0.534311 -0.00110055 3.21463e-06 0.000818601
8.72516 0 0.520692 -0.00108223 2.74554e-06 0.000956511
8.69439 0 0.507614 -0.00106067 2.36738e-06 0.00108791
8.66483 0 0.495055 -0.00103667 1.96437e-06 0.00121157
8.63646 0 0.482994 -0.0010123 1.27711e-06 0.00132277
8.6092 0 0.471411 -0.000990369 6.9896e-07 0.00142079
8.58303 0 0.460288 -0.000971303 -4.54042e-07 0.0015014
8.5579 0 0.449607 -0.000957052 -1.76443e-06 0.00155946
8.53376 0 0.439349 -0.000949731 -3.58652e-06 0.0015926
8.51058 0 0.429498 -0.000950978 -5.0907e-06 0.00160479
8.48833 0 0.420038 -0.000950534 -6.63699e-06 0.00159271
8.46695 0 0.410953 -0.000948374 -8.51682e-06 0.00155586
8.44642 0 0.402229 -0.000945494 -1.06788e-05 0.00149233
8.42671 0 0.393851 -0.000938691 -1.2518e-05 0.00140234
8.9384 0 0.683243 -0.00127006 2.8219e-06 -0.000166796
8.89917 0 0.664607 -0.00128216 4.15075e-06 -7.38608e-05
8.8615 0 0.646711 -0.00130311 5.60627e-06 5.42323e-05
8.82531 0 0.629525 -0.001319 5.78314e-06 0.000177398
8.79057 0 0.613021 -0.0013266 4.65015e-06 0.000316016
8.75721 0 0.597171 -0.00132193 4.13366e-06 0.000457331
8.72516 0 0.58195 -0.00132141 4.86909e-06 0.000606297
8.69439 0 0.567333 -0.00131922 4.68059e-06 0.000751025
8.66483 0 0.553296 -0.00131309 4.51948e-06 0.000894146
8.63646 0 0.539816 -0.00130281 3.5385e-06 0.00103139
8.6092 0 0.526871 -0.00129172 2.75184e-06 0.00115968
8.58303 0 0.51444 -0.00127869 2.01838e-06 0.00127562
8.5579 0 0.502501 -0.00126509 1.41037e-06 0.00137666
8.53376 0 0.491037 -0.00125195 6.3449e-07 0.00145998
8.51058 0 0.480027 -0.00124041 -2.05372e-07 0.00152554
8.48833 0 0.469454 -0.00122938 -1.53495e-06 0.00157067
8.46695 0 0.4593 -0.00122111 -3.00927e-06 0.00159454
8.44642 0 0.44955 -0.00121229 -4.1691e-06 0.00159947
8.42671 0 0.440186 -0.00119597 -5.60293e-06 0.00158354
8.40778 0 0.431194 -0.00117479 -7.61078e-06 0.00154748
8.38959 0 0.422558 -0.00115072 -9.83242e-06 0.00149112
8.9384 0 0.755163 -0.00129645 4.40213e-06 -0.000417404
8.89917 0 0.734566 -0.00130933 1.5111e-06 -0.000346438
8.8615 0 0.714786 -0.00135822 3.04517e-06 -0.00024319
8.82531 0 0.69579 -0.00138489 2.78934e-06 -0.000145462
8.79057 0 0.677549 -0.00142775 4.59505e-06 -3.34404e-05
8.75721 0 0.660031 -0.00145984 5.4548e-06 8.49566e-05
8.72516 0 0.643208 -0.00147978 5.59477e-06 0.000213608
8.69439 0 0.627053 -0.00148987 4.65682e-06 0.000347872
8.66483 0 0.611538 -0.00150504 5.36576e-06 0.000490883
8.63646 0 0.596639 -0.00151789 5.92606e-06 0.000635997
8.6092 0 0.582331 -0.00152409 5.98861e-06 0.000778193
8.58303 0 0.568591 -0.00152341 5.6107e-06 0.000916285
8.5579 0 0.555397 -0.00151939 5.0734e-06 0.00104853
8.53376 0 0.542725 -0.00151293 3.71777e-06 0.00116992
8.51058 0 0.530556 -0.00150591 2.68962e-06 0.00127758
8.48833 0 0.518871 -0.00149587 1.80994e-06 0.00136936
8.46695 0 0.507648 -0.00148428 1.1168e-06 0.00144404
8.44642 0 0.496871 -0.00147156 3.35072e-07 0.00150147
8.42671 0 0.486522 -0.00145783 -5.7119e-07 0.00154425
8.40778 0 0.476583 -0.00144081 -1.55316e-06 0.00157082
8.38959 0 0.467038 -0.00141841 -2.47878e-06 0.00158098
8.9384 0 0.827083 -0.00127326 3.03372e-06 -0.000605835
8.89917 0 0.804525 -0.0012745 -8.04245e-07 -0.000558409
8.8615 0 0.782861 -0.00135622 3.33247e-06 -0.000483043
8.82531 0 0.762056 -0.00139064 1.88443e-06 -0.000410119
8.79057 0 0.742077 -0.00144622 2.93404e-06 -0.000323655
8.75721 0 0.722891 -0.00148157 3.1904e-06 -0.000233804
8.72516 0 0.704466 -0.00152283 4.48063e-06 -0.000135103
8.69439 0 0.686772 -0.00156647 5.18626e-06 -2.69565e-05
8.66483 0 0.66978 -0.00160547 4.77084e-06 9.04761e-05
8.63646 0 0.653462 -0.00163376 4.64361e-06 0.000215687
8.6092 0 0.637792 -0.00165909 5.62719e-06 0.000348023
8.58303 0 0.622743 -0.00168073 6.4639e-06 0.000483681
8.5579 0 0.608291 -0.00169786 7.25209e-06 0.000620424
8.53376 0 0.594413 -0.0017088 7.22895e-06 0.000755381
8.51058 0 0.581085 -0.00171393 6.91456e-06 0.000887053
8.48833 0 0.568287 -0.00171171 6.49743e-06 0.00101295
8.46695 0 0.555995 -0.00170529 5.61662e-06 0.00112874
8.44642 0 0.544192 -0.00169578 4.21017e-06 0.00123107
8.42671 0 0.532857 -0.00168495 2.99895e-06 0.00131832
8.40778 0 0.521972 -0.00167136 2.02853e-06 0.00139147
8.38959 0 0.511518 -0.00165423 1.28653e-06 0.00145091
8.9384 0 0.899004 -0.00118514 1.86307e-06 -0.00072712
8.89917 0 0.874483 -0.00117899 -4.12605e-06 -0.000697012
8.8615 0 0.850935 -0.0012866 1.01317e-06 -0.00064928
8.82531 0 0.828322 -0.00132665 -6.0747e-07 -0.000604023
8.79057 0 0.806606 -0.0014005 1.98608e-06 -0.000550178
8.75721 0 0.785751 -0.00145138 1.92195e-06 -0.000487713
8.72516 0 0.765724 -0.00151199 3.39254e-06 -0.000414459
8.69439 0 0.746491 -0.0015611 3.17337e-06 -0.000333859
8.66483 0 0.728022 -0.0016118 4.284e-06 -0.000246264
8.63646 0 0.710285 -0.00165898 5.50584e-06 -0.000151976
8.6092 0 0.693252 -0.00170055 6.10166e-06 -4.65651e-05
8.58303 0 0.676895 -0.0017339 5.69007e-06 6.49425e-05
8.5579 0 0.661186 -0.00176619 5.74647e-06 0.000185279
8.53376 0 0.646101 -0.0018007 6.36364e-06 0.00031028
8.51058 0 0.631614 -0.00183114 6.75155e-06 0.000438258
8.48833 0 0.617703 -0.00185108 7.75559e-06 0.00056669
8.46695 0 0.604343 -0.00186252 8.51911e-06 0.00069409
8.44642 0 0.591513 -0.00186669 8.40471e-06 0.000818215
8.42671 0 0.579192 -0.00186561 7.96353e-06 0.000937019
8.40778 0 0.56736 -0.00185847 7.44994e-06 0.00104893
8.38959 0 0.555998 -0.00184597 6.48814e-06 0.00115036
8.37214 0 0.545086 -0.00182831 5.28569e-06 0.00123954
8.9384 0 0.970925 -0.00108159 1.76486e-07 -0.00076369
8.89917 0 0.944442 -0.00108036 -6.22226e-06 -0.000746178
8.8615 0 0.91901 -0.00118613 -1.24014e-06 -0.000729673
8.82531 0 0.894588 -0.00122317 -2.81705e-06 -0.000705688
8.79057 0 0.871135 -0.00130334 -6.77113e-07 -0.000678343
8.75721 0 0.848612 -0.00136209 -1.17153e-06 -0.00064283
8.72516 0 0.826982 -0.00143186 9.34198e-08 -0.000602704
8.69439 0 0.806211 -0.00149465 1.48633e-07 -0.000553815
8.66483 0 0.786263 -0.00155936 2.28213e-06 -0.000496577
8.63646 0 0.767108 -0.0016162 2.47122e-06 -0.000431315
8.6092 0 0.748712 -0.00167192 3.75086e-06 -0.000358635
8.58303 0 0.731046 -0.00172182 4.40155e-06 -0.00027805
8.5579 0 0.714081 -0.00177308 5.65323e-06 -0.000186353
8.53376 0 0.697789 -0.00181668 5.80497e-06 -8.79009e-05
8.51058 0 0.682144 -0.00185265 6.42599e-06 1.70513e-05
8.48833 0 0.667119 -0.00188408 6.93682e-06 0.000129291
8.46695 0 0.65269 -0.00191402 7.92413e-06 0.000245719
8.44642 0 0.638834 -0.00194027 8.0154e-06 0.000365096
8.42671 0 0.625528 -0.00196187 8.11979e-06 0.000485333
8.40778 0 0.612749 -0.00197597 8.84779e-06 0.000604664
8.38959 0 0.600478 -0.00198115 9.43809e-06 0.000722839
8.37214 0 0.588693 -0.00197692 9.58157e-06 0.000836651
8.97926 0 1.07246 -0.000799188 -1.2893e-05 -0.000716031
8.9384 0 1.04284 -0.000956507 -7.70381e-07 -0.000757561
8.89917 0 1.0144 -0.000961191 -5.98043e-06 -0.000751807
8.8615 0 0.987085 -0.00105932 -1.59274e-06 -0.000776651
8.82531 0 0.960854 -0.00111293 -2.32342e-06 -0.000765493
8.79057 0 0.935663 -0.00118719 -6.67192e-07 -0.000765353
8.75721 0 0.911471 -0.00125292 -5.81523e-07 -0.000747746
8.72516 0 0.88824 -0.00132076 5.50086e-07 -0.00073089
8.69439 0 0.86593 -0.00138564 6.54997e-07 -0.000703418
8.66483 0 0.844505 -0.00145034 1.5907e-06 -0.00067189
8.63646 0 0.823931 -0.0015131 1.42179e-06 -0.000631703
8.6092 0 0.804172 -0.00157788 2.37849e-06 -0.000585899
8.58303 0 0.785198 -0.00163948 2.59387e-06 -0.000532098
8.5579 0 0.766976 -0.001702 3.97436e-06 -0.00047088
8.53376 0 0.749477 -0.00175913 3.79295e-06 -0.000403152
8.51058 0 0.732673 -0.0018152 4.97644e-06 -0.000327681
8.48833 0 0.716535 -0.00186184 6.05889e-06 -0.000242743
8.46695 0 0.701038 -0.00190414 6.57046e-06 -0.000149677
8.44642 0 0.686155 -0.00193993 7.16293e-06 -5.15176e-05
8.42671 0 0.671863 -0.00197215 7.9664e-06 5.45287e-05
8.40778 0 0.658138 -0.00199926 8.40944e-06 0.000163878
8.38959 0 0.644957 -0.00202175 9.0759e-06 0.000276036
8.37214 0 0.6323 -0.00203763 9.32544e-06 0.000389913
8.97926 0 1.14643 -0.000694086 -1.31594e-05 -0.000584543
8.9384 0 1.11476 -0.000818416 -4.4733e-06 -0.000664852
8.89917 0 1.08436 -0.000822927 -5.86011e-06 -0.000657706
8.8615 0 1.05516 -0.000907776 -7.24151e-06 -0.000702603
8.82531 0 1.02712 -0.000991668 -5.44446e-06 -0.00070677
8.79057 0 1.00019 -0.00105518 -6.12197e-06 -0.000729344
8.75721 0 0.974331 -0.00113564 -5.1202e-06 -0.000740338
8.72516 0 0.949498 -0.00120143 -3.88633e-06 -0.000750259
8.69439 0 0.925649 -0.00127405 -3.20928e-06 -0.000753914
8.66483 0 0.902747 -0.00133945 -2.20289e-06 -0.000750926
8.63646 0 0.880753 -0.00140669 -1.14886e-06 -0.000740673
8.6092 0 0.859632 -0.00147052 -1.04707e-07 -0.000723637
8.58303 0 0.839349 -0.00153275 7.52084e-07 -0.000699274
8.5579 0 0.819871 -0.00159386 1.61876e-06 -0.000666056
8.53376 0 0.801165 -0.00165436 2.28335e-06 -0.000626175
8.51058 0 0.783202 -0.00171405 3.15974e-06 -0.00057891
8.48833 0 0.765951 -0.00177058 4.29338e-06 -0.000524962
8.46695 0 0.749385 -0.00182663 5.6718e-06 -0.000462123
8.44642 0 0.733476 -0.00187881 5.8088e-06 -0.00039224
8.42671 0 0.718198 -0.00192701 6.78005e-06 -0.000313804
8.40778 0 0.703526 -0.00196664 7.85031e-06 -0.00022758
8.38959 0 0.689437 -0.00200273 8.46072e-06 -0.000134283
8.37214 0 0.675907 -0.00203204 9.35338e-06 -3.65049e-05
8.97926 0 1.22039 -0.000588861 -6.52184e-06 -0.000480306
8.9384 0 1.18669 -0.000684949 -7.90361e-06 -0.000600733
8.89917 0 1.15432 -0.000741756 7.19795e-07 -0.000610439
8.8615 0 1.12324 -0.000782264 -7.96029e-06 -0.000668254
8.82531 0 1.09339 -0.000886334 -1.23363e-06 -0.000692731
8.79057 0 1.06472 -0.000919223 -3.29039e-06 -0.000719044
8.75721 0 1.03719 -0.001003 -1.64216e-06 -0.000739166
8.72516 0 1.01076 -0.00106113 -1.0156e-06 -0.000753819
8.69439 0 0.985369 -0.00113018 -2.20294e-06 -0.000766007
8.66483 0 0.960988 -0.00120005 -1.31677e-06 -0.000775475
8.63646 0 0.937576 -0.00126752 -1.63106e-06 -0.000779981
8.6092 0 0.915092 -0.00133578 -1.04286e-06 -0.000780462
8.58303 0 0.893501 -0.00140546 -1.21124e-06 -0.000776161
8.5579 0 0.872766 -0.00147314 -9.59174e-07 -0.000765276
8.53376 0 0.852853 -0.00153801 -6.45696e-07 -0.000748982
8.51058 0 0.833731 -0.00160098 -1.35896e-07 -0.00072556
8.48833 0 0.815368 -0.00166 4.60767e-07 -0.000696709
8.46695 0 0.797732 -0.00171804 1.02836e-06 -0.00065952
8.44642 0 0.780797 -0.0017723 1.74121e-06 -0.000616721
8.42671 0 0.764534 -0.00182578 2.68737e-06 -0.000567492
8.40778 0 0.748915 -0.00187712 3.66339e-06 -0.000511756
8.38959 0 0.733917 -0.00192571 4.34921e-06 -0.000448104
8.37214 0 0.719513 -0.00196974 5.37747e-06 -0.000377839
8.97926 0 1.29435 -0.000492989 1.29812e-06 -0.000270553
8.9384 0 1.25861 -0.00051952 -1.71758e-05 -0.000366446
8.89917 0 1.22428 -0.00061309 -1.55667e-06 -0.00039577
8.8615 0 1.19131 -0.000637855 -1.6298e-05 -0.000455593
8.82531 0 1.15965 -0.00077299 -7.19567e-06 -0.000531169
8.79057 0 1.12925 -0.000796084 -1.24101e-05 -0.00058439
8.75721 0 1.10005 -0.000889606 -8.65431e-06 -0.000647672
8.72516 0 1.07202 -0.000942764 -7.23652e-06 -0.000699196
8.69439 0 1.04509 -0.00101295 -5.04773e-06 -0.000741435
8.66483 0 1.01923 -0.00107843 -3.34499e-06 -0.000775308
8.63646 0 0.994399 -0.00114867 -2.1748e-06 -0.000799292
8.6092 0 0.970553 -0.00121548 -9.3968e-07 -0.000817928
8.58303 0 0.947652 -0.00128278 -1.36535e-07 -0.000831122
8.5579 0 0.925661 -0.00134604 9.81502e-07 -0.000841554
8.53376 0 0.904541 -0.00140949 1.70743e-06 -0.000844821
8.51058 0 0.88426 -0.00147128 2.45196e-06 -0.000841411
8.48833 0 0.864784 -0.001532 3.07185e-06 -0.000832455
8.46695 0 0.84608 -0.00159247 3.71269e-06 -0.000816277
8.44642 0 0.828118 -0.00164876 4.11044e-06 -0.000793797
8.42671 0 0.810869 -0.00170498 4.70708e-06 -0.00076473
8.40778 0 0.794304 -0.00175672 5.43565e-06 -0.0007301
8.38959 0 0.778397 -0.00180725 5.99182e-06 -0.000690269
8.37214 0 0.76312 -0.00185394 6.50268e-06 -0.000643168
8.97926 0 1.36832 -0.000442418 -2.97701e-07 -0.000201239
8.9384 0 1.33053 -0.000430696 -1.4791e-05 -0.000258934
8.89917 0 1.29423 -0.000528055 6.82963e-06 -0.000320704
8.8615 0 1.25938 -0.000515101 -4.69882e-06 -0.000326936
8.82531 0 1.22592 -0.000617811 2.52414e-06 -0.000409364
8.79057 0 1.19378 -0.000645946 -3.69078e-06 -0.000443879
8.75721 0 1.16291 -0.000728701 -3.84194e-06 -0.000506554
8.72516 0 1.13327 -0.000793107 -6.80649e-06 -0.000551176
8.69439 0 1.10481 -0.000877791 -7.76935e-06 -0.000598776
8.66484 0 1.07747 -0.000956686 -8.92761e-06 -0.000643371
8.63646 0 1.05122 -0.00103186 -9.77105e-06 -0.000683917
8.6092 0 1.02601 -0.00110046 -8.75747e-06 -0.000722882
8.58303 0 1.0018 -0.00116542 -8.45547e-06 -0.00075528
8.5579 0 0.978555 -0.00122967 -7.48104e-06 -0.00078432
8.53376 0 0.956229 -0.00129953 -7.05085e-06 -0.000805635
8.51058 0 0.934789 -0.00136226 -6.62695e-06 -0.000822753
8.48833 0 0.9142 -0.00142545 -6.15218e-06 -0.000833026
8.46695 0 0.894427 -0.00148746 -5.71112e-06 -0.000837942
8.44642 0 0.875439 -0.00154647 -5.31987e-06 -0.00083634
8.42671 0 0.857205 -0.00160482 -4.88228e-06 -0.000828876
8.40778 0 0.839693 -0.001659 -4.36407e-06 -0.000814557
8.38959 0 0.822877 -0.00171289 -3.8431e-06 -0.000795412
8.37214 0 0.806727 -0.00176543 -3.04038e-06 -0.000771497
8.97926 0 1.44228 -0.000337363 4.70422e-06 3.9626e-05
8.9384 0 1.40245 -0.000306279 -1.71239e-05 3.40047e-05
8.89917 0 1.36419 -0.0004004 -7.40544e-06 -0.000100664
8.8615 0 1.32746 -0.00041653 -1.30084e-05 -0.000148211
8.82531 0 1.29218 -0.00049604 -1.05957e-05 -0.000271936
8.79057 0 1.2583 -0.000550331 -8.22294e-06 -0.000358913
8.75721 0 1.22577 -0.000626539 -5.89501e-06 -0.000455935
8.72516 0 1.19453 -0.000700947 -3.82502e-06 -0.000537773
8.69439 0 1.16453 -0.000770145 -1.85931e-06 -0.000609831
8.66483 0 1.13571 -0.000837791 4.29837e-07 -0.000676505
8.63646 0 1.10804 -0.000906207 1.59905e-06 -0.000735255
8.6092 0 1.08147 -0.000973593 3.64099e-06 -0.000787053
8.58303 0 1.05595 -0.00103791 4.4314e-06 -0.000831313
8.5579 0 1.03145 -0.00110379 5.92419e-06 -0.000869173
8.53376 0 1.00792 -0.00117202 6.45494e-06 -0.000897765
8.51058 0 0.985317 -0.00124279 7.58581e-06 -0.000919466
8.48833 0 0.963616 -0.00131323 8.0634e-06 -0.000935624
8.46695 0 0.942775 -0.00137811 8.73771e-06 -0.000950427
8.44642 0 0.92276 -0.00144064 9.2275e-06 -0.000959461
8.42671 0 0.90354 -0.00150287 9.79562e-06 -0.000964469
8.40778 0 0.885082 -0.00155837 1.05481e-05 -0.000964087
8.38959 0 0.867357 -0.00160808 1.12286e-05 -0.000958002
8.37214 0 0.850334 -0.00165664 1.18301e-05 -0.000947664
7.66922 0 0.966948 -0.00110987 -2.69248e-06 -0.00127412
7.67296 0 0.988324 -0.00111488 -3.63975e-06 -0.00125029
7.67685 0 1.01058 -0.00111502 -4.65222e-06 -0.00121308
7.68091 0 1.03376 -0.0011111 -5.89731e-06 -0.00116111
7.68513 0 1.0579 -0.00110261 -7.34351e-06 -0.00109107
7.68953 0 1.08303 -0.00108945 -8.92084e-06 -0.000999224
7.69411 0 1.1092 -0.00107071 -1.08452e-05 -0.000881671
7.69888 0 1.13646 -0.00104601 -1.23851e-05 -0.000735528
7.70385 0 1.16483 -0.00101448 -1.40386e-05 -0.000558683
7.70902 0 1.19439 -0.000975227 -1.62625e-05 -0.000352869
7.7144 0 1.22516 -0.000928653 -1.83003e-05 -0.000127258
7.72001 0 1.25721 -0.000879953 -1.25915e-05 9.37918e-05
7.72585 0 1.29057 -0.00088356 1.36002e-06 0.000252585
7.73193 0 1.32531 -0.00108116 6.83505e-06 0.000285557
7.70425 0 0.907776 -0.00107562 -5.37012e-07 -0.00131392
7.70851 0 0.926707 -0.00108774 -1.28529e-06 -0.00131095
7.71295 0 0.946421 -0.00109717 -2.02354e-06 -0.00129919
7.71757 0 0.966948 -0.0011031 -2.91435e-06 -0.00127841
7.72238 0 0.988324 -0.00110328 -3.71011e-06 -0.00124655
7.72738 0 1.01058 -0.00109859 -4.60689e-06 -0.00120251
7.7326 0 1.03376 -0.00108932 -5.69587e-06 -0.00114411
7.73803 0 1.0579 -0.00107489 -7.01988e-06 -0.00106967
7.74368 0 1.08303 -0.00105553 -8.47587e-06 -0.000975987
7.74957 0 1.1092 -0.00103141 -1.00312e-05 -0.000859745
7.7557 0 1.13646 -0.00100175 -1.13506e-05 -0.000719716
7.76209 0 1.16484 -0.000965113 -1.29335e-05 -0.000553661
7.76874 0 1.19439 -0.000921581 -1.40999e-05 -0.000363426
7.77566 0 1.22516 -0.000871323 -1.69421e-05 -0.000156563
7.78287 0 1.25721 -0.000817092 -1.25664e-05 5.00466e-05
7.79038 0 1.29057 -0.000791193 -6.03018e-07 0.000210213
7.7982 0 1.32531 -0.000910513 4.43255e-06 0.000266561
7.73984 0 0.872138 -0.00109222 5.31623e-07 -0.00132844
7.74464 0 0.889597 -0.00110261 -5.49377e-08 -0.0013342
7.74964 0 0.907777 -0.00111023 -7.19863e-07 -0.00133308
7.75484 0 0.926707 -0.00111436 -1.29981e-06 -0.00132415
7.76026 0 0.94642 -0.00111519 -2.07433e-06 -0.00130646
7.76591 0 0.966948 -0.00111268 -2.81882e-06 -0.00127935
7.77179 0 0.988324 -0.00110611 -3.74279e-06 -0.00124162
7.77791 0 1.01058 -0.0010958 -4.62497e-06 -0.00119217
7.78428 0 1.03376 -0.00108143 -5.65733e-06 -0.00112958
7.79092 0 1.0579 -0.00106235 -6.73828e-06 -0.0010522
7.79783 0 1.08303 -0.00103753 -8.07744e-06 -0.000957581
7.80503 0 1.1092 -0.00100725 -9.42286e-06 -0.000842853
7.81252 0 1.13646 -0.000971791 -1.07223e-05 -0.000706464
7.82033 0 1.16483 -0.000930022 -1.19382e-05 -0.000548374
7.82845 0 1.19439 -0.000881091 -1.25192e-05 -0.000369946
7.83692 0 1.22516 -0.000824962 -1.49856e-05 -0.000178052
7.84573 0 1.25721 -0.000763382 -1.26197e-05 1.32118e-05
7.85491 0 1.29057 -0.000717059 -2.96155e-06 0.000171234
7.86446 0 1.32531 -0.00077327 3.42555e-06 0.000245648
7.87441 0 1.3615 -0.00106504 6.40694e-07 0.000211985
7.778 0 0.855372 -0.00113642 1.02534e-06 -0.00133519
7.78345 0 0.872138 -0.00114366 4.13141e-07 -0.00134303
7.78912 0 0.889597 -0.00114816 -1.58536e-07 -0.00134454
7.79503 0 0.907776 -0.00114954 -7.55372e-07 -0.00133917
7.80118 0 0.926708 -0.00114768 -1.30689e-06 -0.00132626
7.80759 0 0.94642 -0.00114221 -2.01783e-06 -0.00130476
7.81425 0 0.966948 -0.00113265 -2.7645e-06 -0.00127406
7.82121 0 0.988324 -0.00111955 -3.70016e-06 -0.00123273
7.82844 0 1.01058 -0.00110286 -4.58512e-06 -0.00118014
7.83597 0 1.03376 -0.00108236 -5.61469e-06 -0.00111491
7.84382 0 1.0579 -0.00105755 -6.571e-06 -0.00103517
7.85199 0 1.08303 -0.00102804 -7.83958e-06 -0.000939301
7.86049 0 1.1092 -0.00099334 -9.05343e-06 -0.000827177
7.86935 0 1.13646 -0.000952535 -1.03563e-05 -0.000696549
7.87857 0 1.16484 -0.000904643 -1.14902e-05 -0.000544964
7.88818 0 1.19439 -0.000848957 -1.19715e-05 -0.000374872
7.89818 0 1.22516 -0.000785372 -1.38389e-05 -0.000192743
7.90859 0 1.25721 -0.000715139 -1.2244e-05 -1.14985e-05
7.91943 0 1.29057 -0.000651566 -5.0238e-06 0.000140161
7.93073 0 1.32531 -0.000661505 1.91093e-06 0.00022403
7.94249 0 1.3615 -0.000884152 2.08852e-06 0.000209273
7.81473 0 0.839271 -0.00118972 1.39719e-06 -0.00132866
7.82076 0 0.855372 -0.00119385 8.95569e-07 -0.00133965
7.82705 0 0.872138 -0.0011953 3.05607e-07 -0.00134449
7.8336 0 0.889597 -0.00119417 -2.48799e-07 -0.00134279
7.84042 0 0.907777 -0.00119014 -7.9108e-07 -0.0013343
7.84752 0 0.926707 -0.00118285 -1.36087e-06 -0.00131834
7.85491 0 0.946421 -0.00117196 -2.00732e-06 -0.0012939
7.8626 0 0.966948 -0.00115707 -2.80221e-06 -0.00126049
7.87062 0 0.988324 -0.00113823 -3.60798e-06 -0.00121674
7.87897 0 1.01058 -0.00111591 -4.467e-06 -0.00116265
7.88766 0 1.03376 -0.00108998 -5.44848e-06 -0.00109633
7.89671 0 1.0579 -0.00106039 -6.27891e-06 -0.00101697
7.90614 0 1.08303 -0.00102699 -7.50812e-06 -0.000923095
7.91595 0 1.1092 -0.000987887 -8.49738e-06 -0.000812441
7.92617 0 1.13646 -0.000941978 -9.6224e-06 -0.000683951
7.93681 0 1.16483 -0.000888153 -1.06562e-05 -0.000537561
7.9479 0 1.19439 -0.000826099 -1.11075e-05 -0.000374937
7.95943 0 1.22516 -0.000755544 -1.26498e-05 -0.000202057
7.97145 0 1.25721 -0.000677214 -1.14489e-05 -2.96771e-05
7.98397 0 1.29057 -0.000600204 -5.65123e-06 0.000116708
7.99699 0 1.32531 -0.000574641 1.29496e-06 0.000204257
8.01056 0 1.3615 -0.000729421 2.8469e-06 0.000203384
8.02469 0 1.39917 -0.00106272 -4.58332e-06 0.000164894
7.85669 0 0.839271 -0.00125242 1.46047e-06 -0.00132708
7.86353 0 0.855372 -0.00125096 8.14781e-07 -0.00133544
7.87066 0 0.872138 -0.00124707 2.85184e-07 -0.00133782
7.87808 0 0.889596 -0.00124049 -2.81403e-07 -0.00133399
7.88581 0 0.907777 -0.00123087 -8.26652e-07 -0.0013231
7.89385 0 0.926708 -0.00121803 -1.45125e-06 -0.00130447
7.90223 0 0.94642 -0.00120135 -1.96675e-06 -0.00127761
7.91095 0 0.966948 -0.00118151 -2.72541e-06 -0.001242
7.92003 0 0.988324 -0.00115778 -3.41448e-06 -0.00119661
7.9295 0 1.01058 -0.00113064 -4.46105e-06 -0.0011421
7.93935 0 1.03376 -0.0010991 -5.48578e-06 -0.00107682
7.94961 0 1.0579 -0.00106336 -6.31474e-06 -0.000999647
7.96029 0 1.08303 -0.00102279 -7.50468e-06 -0.000906894
7.97141 0 1.1092 -0.000977207 -8.07824e-06 -0.000797966
7.98299 0 1.13646 -0.000926125 -8.99831e-06 -0.000672715
7.99505 0 1.16484 -0.000868751 -9.82894e-06 -0.000530793
8.00761 0 1.19439 -0.000803304 -1.03164e-05 -0.000374442
8.02069 0 1.22516 -0.000729243 -1.17642e-05 -0.000208699
8.03431 0 1.25721 -0.000646158 -1.1067e-05 -4.31239e-05
8.04849 0 1.29057 -0.000560519 -6.28279e-06 9.94455e-05
8.06326 0 1.32531 -0.000508297 4.16132e-07 0.000190463
8.07864 0 1.3615 -0.000601765 2.83661e-06 0.000200848
8.09465 0 1.39917 -0.00089975 -3.80304e-06 0.000163058
7.89865 0 0.839271 -0.00131006 1.28502e-06 -0.00131581
7.9063 0 0.855372 -0.001304 8.26112e-07 -0.00132275
7.91427 0 0.872138 -0.00129516 2.32214e-07 -0.00132354
7.92256 0 0.889597 -0.00128374 -3.61801e-07 -0.00131725
7.93119 0 0.907776 -0.00126946 -8.59123e-07 -0.00130438
7.94019 0 0.926708 -0.00125162 -1.46994e-06 -0.00128383
7.94955 0 0.94642 -0.00123033 -2.06253e-06 -0.00125551
7.9593 0 0.966948 -0.00120567 -2.7579e-06 -0.00121874
7.96945 0 0.988324 -0.0011776 -3.38644e-06 -0.00117316
7.98003 0 1.01058 -0.00114604 -4.41363e-06 -0.0011178
7.99104 0 1.03376 -0.00111043 -5.13407e-06 -0.00105058
8.0025 0 1.0579 -0.00107125 -5.70439e-06 -0.000971655
8.01444 0 1.08303 -0.00102676 -6.70113e-06 -0.00087939
8.02687 0 1.1092 -0.000978417 -7.08095e-06 -0.000773901
8.03981 0 1.13646 -0.000924259 -8.13255e-06 -0.000655623
8.05329 0 1.16483 -0.000863455 -9.24708e-06 -0.000522133
8.06733 0 1.19439 -0.000793861 -9.79343e-06 -0.000374623
8.08195 0 1.22516 -0.000715338 -1.09493e-05 -0.000217355
8.09717 0 1.25721 -0.000627427 -1.04708e-05 -5.94932e-05
8.11302 0 1.29057 -0.000533476 -6.67723e-06 7.90846e-05
8.12952 0 1.32531 -0.000458669 1.42084e-07 0.000172463
8.14671 0 1.3615 -0.00050141 2.66641e-06 0.000191559
8.16461 0 1.39917 -0.000749924 -2.88977e-06 0.000159286
8.18324 0 1.4384 -0.00106953 -6.10611e-06 0.00013658
7.94062 0 0.839271 -0.00136872 1.09164e-06 -0.00130024
7.94907 0 0.855372 -0.00135752 2.00685e-07 -0.00130497
7.95787 0 0.872138 -0.00134393 7.39816e-08 -0.00130454
7.96704 0 0.889597 -0.00132718 -4.38461e-07 -0.00129793
7.97658 0 0.907777 -0.00130736 -9.37807e-07 -0.0012835
7.98652 0 0.926707 -0.00128443 -1.48367e-06 -0.0012609
7.99687 0 0.946421 -0.00125845 -2.0672e-06 -0.00123126
8.00765 0 0.966948 -0.00122876 -2.88714e-06 -0.00119398
8.01887 0 0.988324 -0.00119549 -3.60606e-06 -0.00114829
8.03055 0 1.01058 -0.00115803 -4.53438e-06 -0.0010934
8.04273 0 1.03376 -0.00111664 -5.26849e-06 -0.00102865
8.0554 0 1.0579 -0.00107133 -5.92159e-06 -0.000953249
8.06859 0 1.08303 -0.0010223 -7.13465e-06 -0.000863777
8.08233 0 1.1092 -0.000968334 -7.40615e-06 -0.000762454
8.09664 0 1.13646 -0.000908348 -8.23687e-06 -0.000647626
8.11154 0 1.16484 -0.000841934 -8.94066e-06 -0.000517321
8.12705 0 1.19439 -0.000768344 -9.24136e-06 -0.000374139
8.14321 0 1.22516 -0.000686181 -1.00997e-05 -0.000223592
8.16003 0 1.25721 -0.000594131 -1.00163e-05 -7.27297e-05
8.17755 0 1.29057 -0.000494283 -6.92404e-06 6.18448e-05
8.19579 0 1.32531 -0.000402266 1.72244e-07 0.000154555
8.21479 0 1.3615 -0.000399519 3.12081e-06 0.000181139
8.23457 0 1.39917 -0.000595333 -1.23477e-06 0.000153963
8.25516 0 1.4384 -0.000902434 -5.63504e-06 0.000123233
8.27661 0 1.47926 -0.00122428 -7.38588e-06 0.000129998
7.99184 0 0.855371 -0.0014027 5.7915e-07 -0.00127991
8.00148 0 0.872138 -0.00138532 1.75851e-07 -0.00127834
8.01152 0 0.889596 -0.00136452 -4.6786e-07 -0.00127025
8.02197 0 0.907777 -0.00134073 -9.19303e-07 -0.00125467
8.03286 0 0.926708 -0.00131394 -1.52769e-06 -0.00123198
8.04419 0 0.94642 -0.00128397 -2.17641e-06 -0.00120241
8.05599 0 0.966948 -0.00125059 -2.87259e-06 -0.00116487
8.06829 0 0.988324 -0.00121347 -3.56524e-06 -0.00111797
8.08108 0 1.01058 -0.00117261 -4.12293e-06 -0.00106202
8.09441 0 1.03376 -0.00112865 -4.68861e-06 -0.000994725
8.10829 0 1.0579 -0.00108042 -4.86381e-06 -0.000921753
8.12274 0 1.08303 -0.00102944 -6.27677e-06 -0.000832375
8.13779 0 1.1092 -0.000973018 -6.0007e-06 -0.000727835
8.15346 0 1.13646 -0.000910722 -6.94754e-06 -0.000615649
8.16978 0 1.16483 -0.000842029 -8.18484e-06 -0.000494818
8.18677 0 1.19439 -0.000766206 -8.894e-06 -0.000362583
8.20447 0 1.22516 -0.000681517 -9.94084e-06 -0.000219658
8.22289 0 1.25721 -0.000586504 -1.01047e-05 -7.51059e-05
8.24208 0 1.29057 -0.000482663 -7.08193e-06 5.53572e-05
8.26206 0 1.32531 -0.000381148 -4.45397e-07 0.000146841
8.28286 0 1.3615 -0.000348425 3.05123e-06 0.000179271
8.30453 0 1.39917 -0.000486524 1.38234e-07 0.00015612
8.32708 0 1.4384 -0.000774917 -4.95675e-06 0.000118021
8.35057 0 1.47926 -0.00105599 -6.7862e-06 0.000110418
8.03461 0 0.855372 -0.00145087 4.47833e-07 -0.00125284
8.04508 0 0.872138 -0.00142851 -3.95467e-08 -0.00125099
8.056 0 0.889597 -0.00140292 -4.15295e-07 -0.00124267
8.06736 0 0.907776 -0.00137455 -8.61433e-07 -0.00122708
8.07919 0 0.926707 -0.00134306 -1.54346e-06 -0.00120427
8.09151 0 0.946421 -0.00130824 -2.2173e-06 -0.00117419
8.10434 0 0.966948 -0.00126956 -3.06322e-06 -0.00113658
8.1177 0 0.988324 -0.00122718 -3.77372e-06 -0.00109046
8.13161 0 1.01058 -0.00118123 -4.35256e-06 -0.0010374
8.1461 0 1.03376 -0.00113121 -5.20409e-06 -0.000972973
8.16118 0 1.0579 -0.00107984 -5.36368e-06 -0.000905279
8.17689 0 1.08303 -0.00102391 -7.19663e-06 -0.000821444
8.19325 0 1.1092 -0.000960196 -7.01572e-06 -0.000722164
8.21028 0 1.13646 -0.000892645 -7.84456e-06 -0.000616509
8.22802 0 1.16484 -0.00081965 -8.79154e-06 -0.000500428
8.24649 0 1.19439 -0.00073846 -9.10503e-06 -0.000372075
8.26572 0 1.22516 -0.000648909 -9.42317e-06 -0.000232527
8.28575 0 1.25721 -0.000550848 -9.62027e-06 -9.10858e-05
8.30661 0 1.29057 -0.000444479 -6.86227e-06 3.80223e-05
8.32832 0 1.32531 -0.00033542 -4.83293e-07 0.000130514
8.35093 0 1.3615 -0.000278727 2.31001e-06 0.000174582
8.37448 0 1.39917 -0.000372402 7.48418e-07 0.000159283
8.399 0 1.4384 -0.000644258 -4.40112e-06 0.000118813
8.42454 0 1.47926 -0.000896487 -7.27362e-06 9.83864e-05
8.07738 0 0.855372 -0.00148298 5.02566e-07 -0.00121739
8.08869 0 0.872138 -0.00145707 -2.28961e-07 -0.00121492
8.10048 0 0.889597 -0.00142823 -8.74928e-07 -0.00120534
8.11275 0 0.907777 -0.00139668 -1.39251e-06 -0.00118963
8.12553 0 0.926708 -0.00136189 -1.96292e-06 -0.00116758
8.13883 0 0.94642 -0.00132371 -2.49078e-06 -0.00113782
8.15269 0 0.966948 -0.00128187 -3.1045e-06 -0.00110053
8.16712 0 0.988324 -0.00123663 -3.69894e-06 -0.00105462
8.18214 0 1.01058 -0.00118805 -3.82284e-06 -0.00100014
8.19779 0 1.03376 -0.00113571 -4.55213e-06 -0.000937987
8.21408 0 1.0579 -0.00108183 -4.9643e-06 -0.000874139
8.23104 0 1.08303 -0.0010264 -5.71687e-06 -0.000785611
8.24871 0 1.1092 -0.000965098 -4.69614e-06 -0.000679095
8.26711 0 1.13646 -0.000897093 -5.6706e-06 -0.000576606
8.28626 0 1.16483 -0.000822826 -7.19022e-06 -0.00046533
8.30621 0 1.19439 -0.000741675 -7.74864e-06 -0.000343147
8.32698 0 1.22516 -0.000654044 -8.39423e-06 -0.000211938
8.34861 0 1.25721 -0.000558782 -8.96371e-06 -8.19994e-05
8.37113 0 1.29057 -0.000455939 -6.48469e-06 3.97152e-05
8.39459 0 1.32531 -0.000347024 -5.06345e-07 0.000125928
8.41901 0 1.3615 -0.000271617 2.07917e-06 0.000166261
8.44444 0 1.39917 -0.000313344 9.2401e-07 0.000152834
8.47093 0 1.4384 -0.000539153 -3.28656e-06 0.000114377
8.4985 0 1.47926 -0.000766824 -7.59043e-06 8.86162e-05
8.12014 0 0.855372 -0.00152897 5.63216e-07 -0.00118492