# kMean  POINT_DATA 91129
# x  y  z  kMean
0 0 0 0.00562118
0 0.00368111 0 0.00375
0 0.00749587 0 0.00375
0 0.0114491 0 0.00375
0 0.0155459 0 0.00375
0 0.0197915 0 0.00375
0 0.0241911 0 0.00375
0 0.0287506 0 0.00375
0 0.0334755 0 0.00375
0 0.038372 0 0.00375
0 0.0434463 0 0.00375
0 0.0487048 0 0.00375
0 0.0541543 0 0.00375
0 0.0598016 0 0.00375
0 0.0656539 0 0.00375
0 0.0717187 0 0.00375
0.0757758 0.00184056 0 0.00983486
0.0757758 0.00558849 3.46945e-18 0.00342481
0.0757758 0.0094725 0 0.00305822
0.0757758 0.0134975 0 0.00342895
0.0757758 0.0176687 0 0.0035898
0 0.0780037 0 0.00375
0.0757758 0.0219913 0 0.00365202
0.0757758 0.0264709 0 0.0036836
0.0757758 0.031113 3.46945e-18 0.00370178
0.0757758 0.0359238 -3.46945e-18 0.00371331
0 0.0845169 0 0.00375
0.0757758 0.0409092 0 0.00372115
0.0757758 0.0460756 0 0.00372676
0 0.0912666 0 0.00375
0.0757758 0.0514296 3.46945e-18 0.00373094
0.0757758 0.0569779 0 0.00373414
0 0.0982613 0 0.00375
0.0757758 0.0627277 0 0.00373671
0.0757758 0.0686863 0 0.00373889
0 0.10551 0 0.00375
0.0757758 0.0748612 3.46945e-18 0.00374076
0.0757758 0.0812603 3.46945e-18 0.00374236
0 0.113022 0 0.00375
0.0757758 0.0878917 0 0.00374371
0 0.120806 0 0.00375
0.0757758 0.0947639 -3.46945e-18 0.00374484
0.0757758 0.101886 -3.46945e-18 0.00374578
0 0.128874 0 0.00375
0.0757758 0.109266 0 0.00374656
0 0.137234 0 0.00375
0.0757758 0.116914 -3.46945e-18 0.00374721
0 0.145897 0 0.00375
0.0757758 0.12484 0 0.00374775
0.151552 0 0 0.00614317
0.151552 0.00368111 0 0.00432139
0.151552 0.00749587 0 0.00259402
0.151552 0.0114491 0 0.002935
0.151552 0.0155459 0 0.0033016
0.151552 0.0197915 0 0.00347823
0.0757758 0.133054 3.46945e-18 0.0037482
0.151552 0.0241911 0 0.00356672
0.151552 0.0287506 0 0.0036187
0 0.154876 0 0.00375
0.151552 0.0334755 0 0.00365195
0.151552 0.038372 0 0.00367443
0.151552 0.0434463 0 0.00369033
0.151552 0.0487048 0 0.003702
0.0757758 0.141566 0 0.00374859
0.151552 0.0541543 0 0.00371084
0.151552 0.0598016 0 0.00371772
0 0.16418 0 0.00375
0.151552 0.0656539 0 0.00372322
0.151552 0.0717187 0 0.00372772
0.0757758 0.150387 0 0.00374894
0.151552 0.0780037 0 0.00373143
0.151552 0.0845169 0 0.00373451
0 0.173822 0 0.00375
0.0757758 0.159528 3.46945e-18 0.00374927
0.151552 0.0912666 0 0.00373708
0.151552 0.0982613 0 0.00373923
0 0.183814 0 0.00375
0.151552 0.10551 0 0.00374106
0.0757758 0.169001 0 0.00374959
0.151552 0.113022 0 0.00374263
0.151552 0.120806 0 0.00374399
0 0.194169 0 0.00375
0.0757758 0.178818 0 0.00374989
0.151552 0.128874 0 0.00374515
0.0757758 0.188991 3.46945e-18 0.0037502
0.151552 0.137234 0 0.00374614
0 0.2049 0 0.00375
0.151552 0.145897 0 0.00374697
0.0757758 0.199534 -3.46945e-18 0.0037505
0 0.21602 0 0.00375
0.151552 0.154876 0 0.00374769
0.219992 0.00184056 -3.46945e-18 0.00273556
0.219992 0.00558849 0 0.00164536
0.219992 0.0094725 0 0.00234731
0.219992 0.0134975 0 0.00295301
0.219992 0.0176687 0 0.00326659
0.219992 0.0219913 3.46945e-18 0.00342645
0.219992 0.0264709 3.46945e-18 0.00352038
0.219992 0.031113 0 0.00358044
0.219992 0.0359238 0 0.00362081
0.151552 0.16418 0 0.00374832
0.0757758 0.21046 0 0.0037508
0.219992 0.0409092 0 0.00364905
0.219992 0.0460756 0 0.00366954
0.219992 0.0514296 0 0.00368489
0.219992 0.0569779 3.46945e-18 0.00369671
0 0.227544 0 0.00375
0.219992 0.0627277 0 0.00370603
0.219992 0.0686863 0 0.00371351
0.151552 0.173822 0 0.00374889
0.219992 0.0748612 -3.46945e-18 0.00371959
0.0757758 0.221782 0 0.00375109
0.219992 0.0812603 0 0.00372458
0.219992 0.0878917 0 0.00372871
0.151552 0.183814 0 0.0037494
7.47804e-17 0.239487 0 0.00375
0.219992 0.0947639 0 0.00373216
0.219992 0.101886 0 0.00373508
0.0757758 0.233515 0 0.00375136
0.219992 0.109266 0 0.0037376
0.151552 0.194169 0 0.00374989
0.219992 0.116914 -3.46945e-18 0.0037398
0 0.251863 0 0.00375
0.219992 0.12484 0 0.00374173
0.151552 0.2049 0 0.00375034
0.0757758 0.245675 3.46945e-18 0.00375157
0.219992 0.133054 0 0.00374337
0.219992 0.141566 0 0.00374474
0.151552 0.21602 0 0.00375077
0 0.264688 0 0.00375
0.219992 0.150387 0 0.00374589
0.0757758 0.258276 3.46945e-18 0.00375171
0.219992 0.159528 0 0.00374687
0.151552 0.227544 0 0.00375116
0.219992 0.169001 0 0.00374772
0 0.27798 0 0.00375
0.0757758 0.271334 0 0.00375179
0.151552 0.239487 3.70074e-18 0.00375151
0.219992 0.178818 0 0.00374847
0.288433 0 0 0.00182312
0.288433 0.00368111 0 0.00156289
0.288433 0.00749587 0 0.00178802
0.288433 0.0114491 0 0.0025886
0.288433 0.0155459 3.70074e-18 0.00306215
0.288433 0.0197915 0 0.00329358
0.288433 0.0241911 3.70074e-18 0.00341258
0.288433 0.0287506 0 0.00349193
0.219992 0.188991 0 0.00374915
0.288433 0.0334755 0 0.00354982
0.288433 0.038372 0 0.00359239
0.288433 0.0434463 0 0.0036241
7.47804e-17 0.291753 0 0.00375
0.288433 0.0487048 0 0.00364816
0.288433 0.0541543 0 0.00366678
0.151552 0.251863 0 0.00375181
0.288433 0.0598016 3.70074e-18 0.00368144
0.0757758 0.284866 -3.46945e-18 0.00375182
0.288433 0.0656539 3.70074e-18 0.00369317
0.219992 0.199534 0 0.00374977
0.288433 0.0717187 0 0.00370267
0.288433 0.0780037 0 0.00371044
0.288433 0.0845169 0 0.00371683
0.288433 0.0912666 0 0.00372218
0.219992 0.21046 0 0.00375034
0.288433 0.0982613 0 0.00372683
0.151552 0.264688 3.70074e-18 0.00375206
0 0.306027 0 0.00375
0.288433 0.10551 0 0.00373097
0.0757758 0.29889 -3.46945e-18 0.00375179
0.288433 0.113022 0 0.00373462
0.219992 0.221782 0 0.00375086
0.288433 0.120806 0 0.00373783
0.288433 0.128874 0 0.0037406
0.151552 0.27798 0 0.00375226
0.288433 0.137234 0 0.003743
0 0.320819 0 0.00375
0.219992 0.233515 0 0.00375134
0.0757758 0.313423 0 0.00375173
0.288433 0.145897 0 0.00374504
0.288433 0.154876 0 0.00374679
0.151552 0.291753 0 0.00375241
0.219992 0.245675 0 0.00375178
0.288433 0.16418 0 0.00374826
0 0.336148 0 0.00375
0.288433 0.173822 0 0.00374952
0.0757758 0.328484 0 0.00375163
0.219992 0.258276 0 0.00375217
0.151552 0.306027 0 0.00375252
0.288433 0.183814 0 0.00375058
0.288433 0.194169 0 0.00375149
0.219992 0.271334 -3.46945e-18 0.00375252
0.350249 0.00184056 0 0.000977782
0.350249 0.00558849 0 0.000985104
0.350249 0.0094725 0 0.00220495
0.350249 0.0134975 0 0.00285819
0.350249 0.0176687 3.46945e-18 0.00317782
0.350249 0.0219913 0 0.00331123
0.350249 0.0264709 -3.46945e-18 0.00340121
0.350249 0.031113 -3.46945e-18 0.0034743
0 0.352034 0 0.00375
0.350249 0.0359238 3.46945e-18 0.0035312
0.0757758 0.344091 0 0.00375154
0.350249 0.0409092 0 0.00357476
0.350249 0.0460756 0 0.00360823
0.288433 0.2049 0 0.00375227
0.350249 0.0514296 0 0.00363426
0.151552 0.320819 0 0.00375259
0.350249 0.0569779 3.46945e-18 0.00365478
0.350249 0.0627277 0 0.00367117
0.350249 0.0686863 0 0.00368441
0.350249 0.0748612 3.46945e-18 0.00369522
0.350249 0.0812603 0 0.00370409
0.219992 0.284866 0 0.00375283
0.288433 0.21602 0 0.00375296
0.350249 0.0878917 0 0.00371138
0.350249 0.0947639 0 0.00371767
0.350249 0.101886 0 0.0037234
0.350249 0.109266 3.46945e-18 0.00372857
0.288433 0.227544 0 0.00375356
0.0757758 0.360265 0 0.00375151
0 0.368496 0 0.00375
0.151552 0.336148 0 0.00375265
0.350249 0.116914 3.46945e-18 0.00373312
0.219992 0.29889 0 0.0037531
0.370854 0.0241911 0 0.00336593
0.350249 0.12484 0 0.00373708
0.350249 0.133054 3.46945e-18 0.00374053
0.288433 0.239487 -9.25186e-19 0.0037541
0.350249 0.141566 -3.46945e-18 0.00374351
0.350249 0.150387 0 0.00374607
0.288433 0.251863 0 0.0037546
0.219992 0.313423 0 0.00375333
0.151552 0.352034 0 0.00375274
0.0757758 0.377026 -3.46945e-18 0.00375156
0.350249 0.159528 3.46945e-18 0.00374824
0 0.385557 0 0.00375
0.350249 0.169001 3.46945e-18 0.00375007
0.288433 0.264688 0 0.00375506
0.350249 0.178818 0 0.00375159
0.219992 0.328484 0 0.00375354
0.350249 0.188991 0 0.00375284
0.151552 0.368496 0 0.00375288
0.288433 0.27798 3.70074e-18 0.0037555
0.0757758 0.394396 -3.46945e-18 0.00375166
0.350249 0.199534 3.46945e-18 0.00375388
7.47804e-17 0.403236 0 0.00375
0.219992 0.344091 0 0.00375375
0.350249 0.21046 0 0.00375476
0.288433 0.291753 0 0.00375592
0.412065 9.0819e-19 0 0.000803197
0.412065 0.00368111 -2.31296e-18 0.000869464
0.412065 0.00749587 -2.31296e-18 0.00161657
0.412065 0.0114491 -2.31296e-18 0.00262157
0.412065 0.0155459 -2.31296e-18 0.00307566
0.412065 0.0197915 0 0.00325822
0.412065 0.0241911 0 0.00334261
0.412065 0.0264709 0 0.00337442
0.412065 0.0287506 -2.31296e-18 0.00340623
0.412065 0.0334755 -2.31296e-18 0.00346662
0.412065 0.038372 -2.31296e-18 0.00351876
0.151552 0.385557 0 0.00375307
0.412065 0.0434463 0 0.00356131
0.350249 0.221782 0 0.00375551
0.412065 0.0487048 0 0.00359543
0.412065 0.0541543 0 0.00362276
0.412065 0.0569779 0 0.00363377
0.412065 0.0598016 -2.31296e-18 0.00364477
0.412065 0.0656539 -2.31296e-18 0.0036626
0.412065 0.0717187 -2.31296e-18 0.00367713
0.0757758 0.412397 0 0.00375174
0.412065 0.0780037 -2.31296e-18 0.00368903
0.288433 0.306027 0 0.00375631
0.412065 0.0845169 -2.31296e-18 0.00369896
0.350249 0.233515 0 0.00375616
0 0.421557 0 0.00375
0.412065 0.0912666 -2.31296e-18 0.0037076
0.219992 0.360265 -3.46945e-18 0.00375398
0.412065 0.0982613 0 0.00371538
0.412065 0.10551 0 0.00372244
0.412065 0.113022 -2.31296e-18 0.00372877
0.350249 0.245675 3.46945e-18 0.00375675
0.412065 0.120806 0 0.00373438
0.151552 0.403236 0 0.00375328
0.288433 0.320819 0 0.00375668
0.412065 0.128874 -2.31296e-18 0.00373929
0.412065 0.137234 0 0.00374358
0.350249 0.258276 3.46945e-18 0.00375731
0.219992 0.377026 0 0.00375426
0.412065 0.145897 -2.31296e-18 0.00374727
0.0757758 0.431051 0 0.00375179
0.412065 0.154876 -2.31296e-18 0.00375043
0 0.440544 0 0.00375
0.288433 0.336148 0 0.00375705
0.350249 0.271334 0 0.00375785
0.412065 0.16418 -2.31296e-18 0.00375311
0.412065 0.173822 -2.31296e-18 0.00375535
0.151552 0.421557 0 0.00375349
0.412065 0.183814 -2.31296e-18 0.00375723
0.350249 0.284866 0 0.00375839
0.219992 0.394396 0 0.00375458
0.288433 0.352034 3.70074e-18 0.00375742
0.412065 0.194169 0 0.00375878
0.0757758 0.450382 0 0.00375182
0.412065 0.2049 -2.31296e-18 0.00376006
0 0.46022 0 0.00375
0.350249 0.29889 0 0.00375891
0.412065 0.21602 0 0.00376112
0.151552 0.440544 0 0.00375368
0.219992 0.412397 3.46945e-18 0.00375492
0.467897 0.00184056 -3.46945e-18 0.000640792
0.467897 0.00558849 0 0.000889796
0.288433 0.368496 0 0.00375782
0.467897 0.0094725 0 0.00238344
0.467897 0.0134975 3.46945e-18 0.00302717
0.467897 0.0176687 3.46945e-18 0.00323142
0.467897 0.0219913 -3.46945e-18 0.00331049
0.467897 0.0264709 -3.46945e-18 0.00334943
0.467897 0.031113 3.46945e-18 0.00340437
0.467897 0.0359238 0 0.00346165
0.467897 0.038372 0 0.003491
0.467897 0.0409092 0 0.00351221
0.350249 0.313423 0 0.00375944
0.467897 0.0460756 0 0.00355426
0.467897 0.0514296 3.46945e-18 0.00358857
0.412065 0.227544 -2.31296e-18 0.00376201
0.467897 0.0569779 0 0.00361648
0.467897 0.0627277 -3.46945e-18 0.0036392
0.467897 0.0686863 0 0.00365775
0.467897 0.0748612 3.46945e-18 0.0036729
0.467897 0.0812603 3.46945e-18 0.00368538
0.467897 0.0878917 3.46945e-18 0.00369623
0.0757758 0.470415 3.46945e-18 0.00375184
0.412065 0.239487 -2.31296e-18 0.00376277
0.467897 0.0947639 0 0.0037061
0.467897 0.101886 3.46945e-18 0.00371508
0.350249 0.328484 0 0.00375995
0.467897 0.109266 3.46945e-18 0.00372321
0 0.48061 0 0.00375
0.288433 0.385557 0 0.00375824
0.467897 0.116914 3.46945e-18 0.00373048
0.412065 0.251863 -2.31296e-18 0.00376345
0.219992 0.431051 0 0.00375525
0.467897 0.12484 0 0.00373692
0.151552 0.46022 0 0.00375385
0.467897 0.133054 0 0.00374257
0.467897 0.141566 -3.46945e-18 0.00374748
0.412065 0.264688 -2.31296e-18 0.00376407
0.350249 0.344091 0 0.00376047
0.467897 0.150387 0 0.00375169
0.467897 0.154876 0 0.003755
0.467897 0.159528 0 0.00375527
0.288433 0.403236 0 0.00375869
0.0757758 0.491176 3.46945e-18 0.00375186
0.412065 0.27798 -2.31296e-18 0.00376466
0.467897 0.169001 0 0.00375829
0.467897 0.178818 -3.46945e-18 0.00376084
0.219992 0.450382 3.46945e-18 0.00375557
6.73024e-17 0.501741 3.70074e-18 0.00375
0.350249 0.360265 0 0.00376099
0.151552 0.48061 0 0.00375401
0.467897 0.188991 0 0.00376295
0.412065 0.291753 0 0.00376522
0.467897 0.199534 0 0.00376469
0.288433 0.421557 0 0.00375914
0.467897 0.21046 3.46945e-18 0.00376611
0.412065 0.306027 0 0.00376578
0.350249 0.377026 0 0.00376151
0.467897 0.221782 0 0.00376727
0.0757758 0.51269 0 0.00375188
0.219992 0.470415 0 0.00375586
0.467897 0.227544 0 0.00376952
0.412065 0.320819 -2.31296e-18 0.00376632
0.467897 0.233515 0 0.00376824
6.73024e-17 0.523639 3.70074e-18 0.00375
0.523729 0 0 0.000550116
0.523729 0.00368111 0 0.000705623
0.523729 0.00749587 -2.31296e-18 0.00168957
0.523729 0.0114491 0 0.00286182
0.523729 0.0155459 0 0.00326834
0.523729 0.0197915 -2.31296e-18 0.00334345
0.151552 0.501741 0 0.00375416
0.523729 0.0241911 0 0.00335735
0.523729 0.0287506 0 0.00337455
0.523729 0.0334755 0 0.00341443
0.523729 0.038372 0 0.00346324
0.523729 0.0434463 0 0.00350969
0.523729 0.0487048 0 0.00355002
0.523729 0.0541543 0 0.0035839
0.288433 0.440544 0 0.0037596
0.523729 0.0598016 0 0.00361201
0.350249 0.394396 0 0.00376206
0.523729 0.0656539 0 0.00363521
0.467897 0.245675 3.46945e-18 0.00376907
0.523729 0.0717187 0 0.0036543
0.523729 0.0780037 0 0.00367017
0.523729 0.0845169 0 0.00368392
0.523729 0.0912666 0 0.00369635
0.412065 0.336148 0 0.00376687
0.523729 0.0982613 0 0.00370769
0.523729 0.10551 -2.31296e-18 0.00371798
0.467897 0.258276 3.46945e-18 0.00376979
0.523729 0.113022 0 0.00372724
0.523729 0.120806 0 0.00373552
0.219992 0.491176 3.46945e-18 0.00375614
0.523729 0.12484 0 0.00373917
0.523729 0.128874 -2.31296e-18 0.00374283
0.0757758 0.534985 -3.46945e-18 0.00375191
0.467897 0.271334 0 0.00377044
0.350249 0.412397 3.46945e-18 0.00376262
0.523729 0.137234 0 0.00374924
0.412065 0.352034 -2.31296e-18 0.00376742
0.288433 0.46022 0 0.00376003
0.523729 0.145897 0 0.0037548
0.151552 0.523639 0 0.0037543
0.523729 0.154876 0 0.00375957
0 0.546332 0 0.00375
0.523729 0.159528 0 0.0037616
0.467897 0.284866 3.46945e-18 0.00377105
0.523729 0.16418 -2.31296e-18 0.00376362
0.523729 0.173822 0 0.00376704
0.412065 0.368496 0 0.00376798
0.523729 0.183814 0 0.0037699
0.467897 0.29889 -3.46945e-18 0.00377163
0.350249 0.431051 0 0.0037632
0.219992 0.51269 3.46945e-18 0.0037564
0.523729 0.194169 0 0.00377225
0.288433 0.48061 0 0.00376044
0.523729 0.2049 0 0.00377418
0.467897 0.313423 0 0.00377221
0.0757758 0.55809 0 0.00375195
0.412065 0.385557 0 0.00376856
0.523729 0.21602 0 0.00377575
0.151552 0.546332 0 0.00375446
0 0.569849 0 0.00375
0.350249 0.450382 0 0.00376377
0.523729 0.227544 0 0.00377703
0.467897 0.328484 0 0.00377278
0.523729 0.231525 0 0.00377738
0.574156 0.00184056 0 0.000465391
0.574156 0.00558849 0 0.000834348
0.574156 0.0094725 0 0.00264379
0.574156 0.0134975 0 0.00337238
0.574156 0.0176687 0 0.00342418
0.574156 0.0219913 3.46945e-18 0.0033982
0.574156 0.0264709 0 0.00336771
0.574156 0.031113 0 0.00337699
0.574156 0.0359238 3.46945e-18 0.00341714
0.574156 0.0409092 -3.46945e-18 0.00346508
0.523729 0.239487 3.70074e-18 0.00377808
0.574156 0.0460756 3.46945e-18 0.00351029
0.574156 0.0514296 0 0.00354977
0.412065 0.403236 0 0.00376916
0.574156 0.0569779 0 0.00358322
0.574156 0.0627277 0 0.00361121
0.574156 0.0686863 0 0.00363443
0.219992 0.534985 0 0.00375666
0.288433 0.501741 0 0.00376083
0.574156 0.0748612 0 0.00365356
0.574156 0.0812603 0 0.00367
0.467897 0.344091 3.46945e-18 0.00377336
0.574156 0.0878917 0 0.00368498
0.523729 0.251863 0 0.00377896
0.574156 0.0947639 -3.46945e-18 0.00369872
0.574156 0.101886 0 0.00371123
0.574156 0.109266 3.46945e-18 0.00372254
0.574156 0.116914 -3.46945e-18 0.00373269
0.412065 0.416977 0 0.00376963
0.350249 0.470415 0 0.00376431
0.523729 0.264688 0 0.0037797
0.0757758 0.582034 0 0.003752
0.574156 0.12484 0 0.00374173
0.574156 0.133054 0 0.0037497
0.412065 0.421557 -2.31296e-18 0.00376978
0.151552 0.569849 0 0.00375461
0.467897 0.360265 0 0.00377395
0.574156 0.141566 -3.46945e-18 0.00375666
0.523729 0.27798 0 0.00378036
0.574156 0.150387 -3.46945e-18 0.00376268
0 0.594219 0 0.00375
0.574156 0.159528 0 0.00376783
0.574156 0.16418 0 0.00377144
0.288433 0.523639 9.24446e-33 0.00376121
0.574156 0.169001 -3.46945e-18 0.0037722
0.523729 0.291753 0 0.00378097
0.219992 0.55809 -3.46945e-18 0.00375691
0.467897 0.377026 0 0.00377456
0.574156 0.178818 -3.46945e-18 0.00377586
0.412065 0.440544 -2.31296e-18 0.00377041
0.350249 0.491176 3.46945e-18 0.00376483
0.574156 0.188991 0 0.00377889
0.523729 0.306027 0 0.00378154
0.574156 0.199534 0 0.00378138
0.574156 0.21046 0 0.00378341
0.0757758 0.606847 0 0.00375206
0.467897 0.394396 3.46945e-18 0.00377519
0.151552 0.594219 0 0.00375477
0.523729 0.320819 0 0.00378209
0.574156 0.221782 -3.46945e-18 0.00378504
0.412065 0.46022 0 0.00377102
0.288433 0.546332 0 0.00376157
0 0.619475 0 0.00375
0.574156 0.233515 0 0.00378636
0.350249 0.51269 3.46945e-18 0.00376532
0.219992 0.582034 0 0.00375717
0.523729 0.336148 0 0.00378264
0.467897 0.412397 0 0.00377585
0.574156 0.245675 3.46945e-18 0.00378743
0.624584 0 0 0.000401902
0.624584 0.00368111 0 0.000610274
0.624584 0.00749587 0 0.00179875
0.624584 0.0114491 0 0.00319355
0.624584 0.0155459 0 0.00360646
0.624584 0.0197915 0 0.00354764
0.624584 0.0241911 -2.31296e-18 0.00345023
0.624584 0.0287506 0 0.00339835
0.624584 0.0334755 0 0.00339815
0.624584 0.038372 0 0.00342987
0.624584 0.0434463 -2.31296e-18 0.00347214
0.624584 0.0487048 0 0.00351417
0.624584 0.0541543 0 0.00355199
0.624584 0.0598016 0 0.00358463
0.624584 0.0656539 0 0.00361224
0.624584 0.0717187 0 0.00363537
0.624584 0.0780037 0 0.00365516
0.574156 0.258276 0 0.00378831
0.624584 0.0845169 0 0.00367292
0.523729 0.352034 0 0.0037832
0.624584 0.0912666 0 0.00368928
0.624584 0.0982613 0 0.00370428
0.412065 0.48061 0 0.00377161
0.624584 0.10551 0 0.00371793
0.624584 0.113022 -2.31296e-18 0.00373025
0.574156 0.271334 0 0.00378904
0.624584 0.120806 0 0.00374128
0.467897 0.431051 0 0.00377652
0.0757758 0.632561 3.46945e-18 0.00375212
0.624584 0.128874 0 0.00375109
0.151552 0.619475 0 0.00375492
0.288433 0.569849 0 0.00376191
0.350249 0.534985 0 0.00376578
0.624584 0.137234 -2.31296e-18 0.00375972
0.523729 0.368496 0 0.00378378
0.574156 0.284866 -3.46945e-18 0.00378968
0.624584 0.145897 0 0.00376724
0.467897 0.440544 0 0.00377836
0.624584 0.154876 0 0.00377373
0.219992 0.606847 0 0.00375742
0 0.645647 0 0.00375
0.624584 0.16418 0 0.00377927
0.574156 0.29889 0 0.00379026
0.624584 0.173822 0 0.00378394
0.412065 0.501741 0 0.00377217
0.467897 0.450382 0 0.00377719
0.523729 0.385557 0 0.00378438
0.624584 0.183814 0 0.00378784
0.624584 0.194169 0 0.00379106
0.574156 0.313423 3.46945e-18 0.0037908
0.624584 0.2049 0 0.00379369
0.350249 0.55809 3.46945e-18 0.00376622
0.288433 0.594219 0 0.00376225
0.624584 0.21602 0 0.00379581
0.523729 0.403236 0 0.003785
0.574156 0.328484 -3.46945e-18 0.00379132
0.151552 0.645647 0 0.00375508
0.467897 0.470415 0 0.00377786
0.0757758 0.659208 3.46945e-18 0.00375218
0.624584 0.227544 0 0.0037975
0.412065 0.523639 0 0.0037727
0.523729 0.41545 0 0.00378544
0.624584 0.239487 3.70074e-18 0.00379885
0.574156 0.344091 0 0.00379185
0.219992 0.632561 -3.46945e-18 0.00375767
0.67013 0.00184056 3.46945e-18 0.000342297
0.67013 0.00558849 -3.46945e-18 0.000803914
0.67013 0.0094725 3.46945e-18 0.00290572
0.67013 0.0134975 -3.46945e-18 0.00382968
0.67013 0.0176687 0 0.00377417
0.67013 0.0219913 0 0.00357732
0.67013 0.0264709 3.46945e-18 0.00344946
0.67013 0.031113 0 0.00339607
0.67013 0.0359238 -3.46945e-18 0.00340226
0.67013 0.0409092 0 0.00343639
0.67013 0.0460756 0 0.00347869
0.67013 0.0514296 -3.46945e-18 0.00351989
0.523729 0.421557 0 0.00378565
0.67013 0.0569779 0 0.00355685
0 0.67277 0 0.00375
0.67013 0.0627277 3.46945e-18 0.0035888
0.624584 0.251863 0 0.00379993
0.67013 0.0686863 0 0.00361581
0.67013 0.0748612 -3.46945e-18 0.00363872
0.67013 0.0812603 0 0.00365914
0.67013 0.0878917 0 0.00367812
0.67013 0.0947639 0 0.00369562
0.574156 0.360265 3.46945e-18 0.0037924
0.67013 0.101886 3.46945e-18 0.00371163
0.523729 0.431051 0 0.00378599
0.624584 0.264688 0 0.0038008
0.467897 0.491176 0 0.00377849
0.67013 0.109266 3.46945e-18 0.00372617
0.350249 0.582034 0 0.00376665
0.67013 0.116914 -3.46945e-18 0.00373926
0.67013 0.12484 0 0.00375096
0.67013 0.133054 -3.46945e-18 0.00376132
0.288433 0.619475 0 0.00376257
0.624584 0.27798 0 0.00380151
0.412065 0.546332 0 0.0037732
0.523729 0.440544 0 0.00378632
0.67013 0.141566 0 0.00377041
0.685312 0.0241911 0 0.00356989
0.685312 0.0434463 0 0.00345861
0.67013 0.150387 0 0.0037783
0.574156 0.377026 0 0.00379297
0.67013 0.159528 0 0.00378507
0.624584 0.291753 0 0.00380211
0.151552 0.67277 0 0.00375523
0.0757758 0.686823 0 0.00375225
0.67013 0.169001 -3.46945e-18 0.00379083
0.67013 0.178818 0 0.00379567
0.467897 0.51269 3.46945e-18 0.00377909
0.685312 0.113022 0 0.00373495
0.219992 0.659208 0 0.00375791
0.624584 0.306027 0 0.00380264
0.67013 0.188991 0 0.00379968
0.574156 0.394396 -3.46945e-18 0.00379356
0.523729 0.46022 0 0.00378698
0.685312 0.137234 0 0.00376948
0.67013 0.199534 3.46945e-18 0.00380297
0.350249 0.606847 3.46945e-18 0.00376705
0 0.700877 0 0.00375
0.624584 0.320819 0 0.00380313
0.67013 0.21046 -3.46945e-18 0.00380562
0.412065 0.569849 -2.31296e-18 0.00377367
0.67013 0.221782 0 0.00380775
0.574156 0.412397 -3.46945e-18 0.00379419
0.288433 0.645647 0 0.00376288
0.624584 0.336148 0 0.00380361
0.67013 0.233515 -3.46945e-18 0.00380943
0.467897 0.534985 0 0.00377965
0.523729 0.48061 0 0.00378763
0.624584 0.344091 0 0.00380385
0.67013 0.245675 0 0.00381075
0.715676 4.54095e-19 -1.54074e-33 0.00029392
0.715676 0.00368111 0 0.00054474
0.715676 0.00749587 0 0.00191477
0.715676 0.0114491 -1.54074e-33 0.00356078
0.715676 0.0155459 0 0.00405273
0.715676 0.0197915 0 0.00387205
0.715676 0.0241911 0 0.00362971
0.715676 0.0287506 0 0.00348351
0.715676 0.0334755 0 0.00342311
0.715676 0.038372 0 0.00342295
0.624584 0.352034 -2.31296e-18 0.00380409
0.715676 0.0434463 0 0.00345184
0.151552 0.700877 0 0.00375539
0.715676 0.0487048 0 0.00349011
0.715676 0.0541543 0 0.00352868
0.574156 0.431051 -3.46945e-18 0.00379484
0.715676 0.0598016 0 0.00356394
0.67013 0.258276 0 0.00381178
0.715676 0.0656539 0 0.00359472
0.715676 0.0717187 0 0.00362122
0.0757758 0.715441 0 0.00375231
0.715676 0.0780037 0 0.00364469
0.715676 0.0845169 0 0.00366631
0.219992 0.686823 0 0.00375815
0.715676 0.0912666 0 0.00368641
0.715676 0.0982613 0 0.00370496
0.67013 0.271334 0 0.0038126
0.350249 0.632561 3.46945e-18 0.00376743
0.412065 0.594219 -2.31296e-18 0.00377411
0.715676 0.10551 0 0.00372192
0.715676 0.113022 0 0.0037373
0.624584 0.368496 0 0.00380459
0.523729 0.501741 0 0.00378825
0.715676 0.120806 0 0.00375114
0.715676 0.128874 0 0.00376347
0.67013 0.284866 0 0.00381325
0.467897 0.55809 3.46945e-18 0.00378017
0.715676 0.137234 0 0.00377437
0.574156 0.450382 0 0.00379551
0 0.730005 0 0.00375
0.715676 0.145897 0 0.0037839
0.288433 0.67277 0 0.00376318
0.715676 0.154876 0 0.00379215
0.67013 0.29889 3.46945e-18 0.00381379
0.624584 0.385557 0 0.00380511
0.715676 0.16418 0 0.00379921
0.715676 0.173822 0 0.00380518
0.715676 0.183814 0 0.00381018
0.67013 0.313423 0 0.00381426
0.523729 0.523639 0 0.00378883
0.715676 0.194169 0 0.0038143
0.574156 0.470415 3.46945e-18 0.00379617
0.624584 0.403236 0 0.00380566
0.743101 0.0241911 0 0.00372405
0.412065 0.619475 -2.31296e-18 0.00377452
0.715676 0.2049 0 0.00381765
0.151552 0.730005 0 0.00375554
0.67013 0.328484 0 0.0038147
0.350249 0.659208 -3.46945e-18 0.00376779
0.467897 0.582034 0 0.00378066
0.715676 0.21602 0 0.00382033
0.219992 0.715441 0 0.00375838
0.0757758 0.745098 3.46945e-18 0.00375238
0.715676 0.227544 0 0.00382246
0.67013 0.344091 0 0.00381512
0.624584 0.421557 0 0.00380625
0.743101 0.128874 0 0.00376875
0.715676 0.239487 3.70074e-18 0.00382412
0.574156 0.491176 3.46945e-18 0.0037968
0.523729 0.546332 0 0.00378936
0.756814 0.00184056 0 0.000248275
0.756814 0.00558849 0 0.000787693
0.756814 0.0094725 0 0.00315509
0.756814 0.0134975 3.46945e-18 0.00433091
0.756814 0.0155459 0 0.00430448
0.756814 0.0176687 -3.46945e-18 0.00424787
0.756814 0.0219913 -3.46945e-18 0.00386667
0.756814 0.0264709 3.46945e-18 0.00361227
0.756814 0.031113 -3.46945e-18 0.00346936
0.756814 0.0359238 -3.46945e-18 0.00342205
0.288433 0.700877 0 0.00376346
0.756814 0.0409092 0 0.00343069
0.756814 0.0460756 -3.46945e-18 0.00346225
0.756814 0.0514296 -3.46945e-18 0.00350064
0.715676 0.251863 0 0.0038254
0.756814 0.0569779 0 0.00353842
0.756814 0.0627277 3.46945e-18 0.00357269
0.756814 0.0686863 0 0.00360243
0 0.76019 0 0.00375
0.756814 0.0748612 0 0.0036286
0.67013 0.360265 0 0.00381555
0.756814 0.0812603 0 0.00365278
0.756814 0.0878917 0 0.00367545
0.756814 0.0947639 -3.46945e-18 0.00369651
0.715676 0.264688 0 0.00382638
0.756814 0.101886 -3.46945e-18 0.00371592
0.624584 0.440544 0 0.00380685
0.756814 0.109266 -3.46945e-18 0.00373362
0.756814 0.116914 -3.46945e-18 0.00374964
0.412065 0.645647 0 0.0037749
0.467897 0.606847 0 0.00378111
0.756814 0.120806 0 0.0037578
0.756814 0.12484 3.46945e-18 0.00376401
0.715676 0.27798 -1.54074e-33 0.00382712
0.756814 0.133054 3.46945e-18 0.00377678
0.67013 0.377026 3.46945e-18 0.003816
0.756814 0.137234 0 0.00378342
0.574156 0.51269 0 0.0037974
0.756814 0.141566 0 0.00378801
0.685312 0.352034 0 0.00382088
0.743101 0.2049 0 0.00382683
0.350249 0.686823 0 0.00376813
0.756814 0.150387 0 0.0037978
0.756814 0.154876 0 0.0038031
0.715676 0.291753 -6.16298e-33 0.00382771
0.756814 0.159528 0 0.00380624
0.523729 0.569849 0 0.00378984
0.72743 0.264688 0 0.00383055
0.756814 0.16418 0 0.00381093
0.151552 0.76019 3.70074e-18 0.00375568
0.756814 0.169001 3.46945e-18 0.00381343
0.624584 0.46022 0 0.00380747
0.219992 0.745098 -3.46945e-18 0.0037586
0.67013 0.394396 0 0.00381649
0.756814 0.178818 0 0.00381947
0.715676 0.306027 0 0.00382817
0.0757758 0.775831 3.46945e-18 0.00375245
0.756814 0.188991 0 0.00382449
0.756814 0.199534 -3.46945e-18 0.0038286
0.715676 0.320819 0 0.00382857
0.574156 0.534985 0 0.00379795
0.288433 0.730005 0 0.00376373
0.756814 0.21046 0 0.00383191
0.467897 0.632561 0 0.00378152
0.67013 0.412397 0 0.003817
0.624584 0.48061 0 0.00380807
0.756814 0.221782 3.46945e-18 0.00383453
0.412065 0.67277 -2.31296e-18 0.00377525
0.715676 0.336148 0 0.00382892
0 0.791472 0 0.00375
0.756814 0.233515 0 0.00383658
0.523729 0.594219 0 0.00379029
0.624584 0.487654 0 0.00380826
0.756814 0.245675 0 0.00383815
0.350249 0.715441 3.46945e-18 0.00376845
0.67013 0.431051 -3.46945e-18 0.00381755
0.715676 0.352034 0 0.00382927
0.797951 9.0819e-19 0 0.000211737
0.797951 0.00368111 0 0.000496603
0.797951 0.00749587 0 0.00202422
0.797951 0.0114491 0 0.00392315
0.797951 0.0141803 0 0.0043452
0.797951 0.0155459 0 0.00455623
0.797951 0.0169611 0 0.00447342
0.797951 0.0197915 0 0.0043078
0.797951 0.0219913 0 0.00411025
0.797951 0.0241911 0 0.00391271
0.797951 0.0264709 0 0.00377676
0.797951 0.0287506 0 0.00364082
0.797951 0.0334755 0 0.00349597
0.797951 0.038372 0 0.00344709
0.797951 0.0434463 0 0.00345175
0.797951 0.0487048 0 0.00347971
0.756814 0.258276 0 0.00383933
0.797951 0.0541543 0 0.00351511
0.797951 0.0598016 0 0.0035506
0.797951 0.0656539 0 0.00358311
0.574156 0.55809 0 0.00379845
0.624584 0.501741 -2.05433e-33 0.00380864
0.797951 0.0717187 0 0.00361213
0.797951 0.0780037 0 0.00363879
0.797951 0.0845169 0 0.00366389
0.797951 0.0912666 0 0.00368744
0.797951 0.0982613 0 0.00370934
0.756814 0.271334 -3.46945e-18 0.00384021
0.797951 0.10551 0 0.00372949
0.715676 0.368496 0 0.00382963
0.151552 0.791472 0 0.00375583
0.797951 0.113022 0 0.00374787
0.219992 0.775831 3.46945e-18 0.00375882
0.797951 0.118212 0 0.00375893
0.770526 0.239487 0 0.00384337
0.797951 0.120806 9.25186e-19 0.00376446
0.67013 0.450382 3.46945e-18 0.00381812
0.797951 0.128874 -2.31296e-18 0.00377931
0.467897 0.659208 0 0.00378189
0.756814 0.284866 0 0.00384086
0.743101 0.320819 0 0.00383827
0.797951 0.137234 0 0.00379247
0.797951 0.141566 0 0.00379825
0.797951 0.145897 0 0.00380402
0.523729 0.619475 0 0.00379068
0.0757758 0.80768 0 0.00375252
0.797951 0.150387 0 0.00380904
0.797951 0.154876 9.25186e-19 0.00381405
0.715676 0.385557 0 0.00383002
0.412065 0.700877 -2.31296e-18 0.00377557
0.288433 0.76019 0 0.00376398
0.756814 0.29889 -3.46945e-18 0.00384134
0.797951 0.16418 0 0.00382265
0.624584 0.523639 -1.54074e-33 0.00380917
0.797951 0.167394 0 0.00382508
0.797951 0.173822 0 0.00382995
0.574156 0.582034 0 0.0037989
0.67013 0.470415 0 0.00381869
0.797951 0.183814 0 0.00383605
0.756814 0.313423 0 0.00384171
0.797951 0.194169 0 0.00384109
0.715676 0.403236 -6.16298e-33 0.00383044
0.151552 0.80768 0 0.0037559
0.797951 0.197746 0 0.00384245
0.350249 0.745098 -3.46945e-18 0.00376874
0.797951 0.2049 0 0.00384518
0 0.823889 0 0.00375
0.756814 0.328484 0 0.00384202
0.797951 0.21046 0 0.00384682
0.797951 0.21602 0 0.00384845
0.797951 0.223703 0 0.00385016
0.797951 0.227544 0 0.00385102
0.624584 0.546332 0 0.00380964
0.715676 0.421557 0 0.00383089
0.67013 0.491176 3.46945e-18 0.00381924
0.797951 0.231525 0 0.00385168
0.467897 0.686823 0 0.00378222
0.523729 0.645647 0 0.00379103
0.756814 0.344091 -3.46945e-18 0.0038423
0.822721 0.120806 0 0.00376983
0.797951 0.239487 0 0.00385299
0.822721 0.137234 0 0.00379942
0.835107 0.00184056 -3.46945e-18 0.000177086
0.835107 0.00558849 0 0.000775586
0.835107 0.0094725 3.46945e-18 0.00337319
0.835107 0.0134975 0 0.00481491
0.835107 0.0176687 0 0.00480371
0.835107 0.0219913 3.46945e-18 0.0042871
0.574156 0.606847 3.46945e-18 0.00379929
0.835107 0.0241911 0 0.00411104
0.835107 0.0264709 3.46945e-18 0.00386691
0.822721 0.145897 0 0.00381165
0.835107 0.031113 0 0.00360441
0.835107 0.0359238 0 0.00348289
0.835107 0.0409092 -3.46945e-18 0.00345061
0.835107 0.0460756 0 0.00346293
0.835107 0.0514296 -3.46945e-18 0.0034932
0.797951 0.251863 0 0.00385449
0.835107 0.0541543 0 0.00351421
0.835107 0.0569779 -3.46945e-18 0.00352862
0.219992 0.80768 -3.46945e-18 0.00375902
0.822721 0.154876 0 0.00382227
0.835107 0.0627277 -3.46945e-18 0.0035632
0.151552 0.823889 0 0.00375596
0.797951 0.255069 0 0.00385476
0.835107 0.0686863 3.46945e-18 0.00359457
0.756814 0.360265 3.46945e-18 0.00384258
0.412065 0.730005 0 0.00377586
0.835107 0.0748612 0 0.00362329
0.822721 0.16418 0 0.00383139