# kMean  POINT_DATA 63140
# x  y  z  kMean
0 0.1 0 0.00375
0 0.1 -0.0179898 0.00375
0 0.1 0.0179898 0.00375
0.0363518 0.1 -0.0179898 0.00374801
0.0363518 0.1 0.0179898 0.00374794
0 0.1 -0.0570102 0.00375
0 0.1 0.0570102 0.00375
0.0363518 0.1 0.0570102 0.00374794
0.0363518 0.1 -0.0570102 0.00374801
0 0.1 -0.075 0.00375
0 0.1 0.075 0.00375
0.0757758 0.1 -0.0375 0.00374561
0.0757758 0.1 0.0375 0.00374545
0 0.1 -0.0929898 0.00375
0 0.1 0.0929898 0.00375
0.0363518 0.1 -0.0929898 0.00374825
0.0363518 0.1 0.0929898 0.00374805
0 0.1 -0.13201 0.00375
0 0.1 0.13201 0.00375
0.0757758 0.1 -0.1125 0.0037461
0.0757758 0.1 0.1125 0.00374568
0.0363518 0.1 -0.13201 0.00374825
0.0363518 0.1 0.13201 0.00374805
0 0.1 -0.15 0.00375
0 0.1 0.15 0.00375
0.150379 0.1 -4.33681e-19 0.00373979
0 0.1 -0.16799 0.00375
0 0.1 0.16799 0.00375
0.150379 0.1 -0.075 0.00374044
0.150379 0.1 0.075 0.00373975
0.0363518 0.1 -0.16799 0.00374851
0.0363518 0.1 0.16799 0.00374831
0.0757758 0.1 -0.1875 0.00374663
0.0757758 0.1 0.1875 0.00374622
0 0.1 -0.20701 0.00375
0 0.1 0.20701 0.00375
0.0363518 0.1 -0.20701 0.00374851
0.0363518 0.1 0.20701 0.00374831
0.150379 0.1 -0.15 0.00374128
0.150379 0.1 0.15 0.00374037
0.219992 0.1 -0.0375 0.00373465
0.219992 0.1 0.0375 0.00373397
0 0.1 -0.225 0.00375
0 0.1 0.225 0.00375
0 0.1 -0.24299 0.00375
0 0.1 0.24299 0.00375
0.0363518 0.1 0.24299 0.00374863
0.0363518 0.1 -0.24299 0.00374873
0.219992 0.1 -0.1125 0.0037359
0.219992 0.1 0.1125 0.00373443
0.150379 0.1 0.225 0.00374129
0.150379 0.1 -0.225 0.00374206
0.0757758 0.1 0.2625 0.00374689
0.0757758 0.1 -0.2625 0.00374709
0 0.1 -0.28201 0.00375
0 0.1 0.28201 0.00375
0.0363518 0.1 -0.28201 0.00374873
0.0363518 0.1 0.28201 0.00374863
0.287374 0.1 0 0.00372797
0.219992 0.1 -0.1875 0.00373696
0.219992 0.1 0.1875 0.00373564
0.287374 0.1 -0.075 0.00372912
0.287374 0.1 0.075 0.00372767
0 0.1 -0.3 0.00375
0 0.1 0.3 0.00375
0 0.1 -0.31799 0.00375
0 0.1 0.31799 0.00375
0.0363518 0.1 -0.31799 0.00374896
0.0363518 0.1 0.31799 0.00374892
0.287374 0.1 -0.15 0.00373044
0.287374 0.1 0.15 0.00372843
0.150379 0.1 -0.3 0.00374278
0.150379 0.1 0.3 0.00374224
0.219992 0.1 -0.2625 0.00373799
0.219992 0.1 0.2625 0.00373688
0.0757758 0.1 -0.3375 0.00374757
0.0757758 0.1 0.3375 0.00374749
0.350249 0.1 -0.0375 0.00372242
0.350249 0.1 0.0375 0.00372135
0 0.1 0.35701 0.00375
0 0.1 -0.35701 0.00375
0.0363518 0.1 -0.35701 0.00374896
0.0363518 0.1 0.35701 0.00374892
0.287374 0.1 -0.225 0.00373161
0.287374 0.1 0.225 0.00372973
0.350249 0.1 0.1125 0.00372148
0.350249 0.1 -0.1125 0.00372402
0 0.1 -0.375 0.00375
0 0.1 0.375 0.00375
0 0.1 -0.39299 0.00375
0 0.1 0.39299 0.00375
0.0363518 0.1 -0.39299 0.0037492
0.0363518 0.1 0.39299 0.00374918
0.350249 0.1 -0.1875 0.00372538
0.350249 0.1 0.1875 0.0037227
0.219992 0.1 -0.3375 0.00373887
0.219992 0.1 0.3375 0.00373816
0.150379 0.1 -0.375 0.00374333
0.150379 0.1 0.375 0.00374308
0.411108 0.1 -2.21177e-17 0.00371722
0.287374 0.1 -0.3 0.00373262
0.287374 0.1 0.3 0.00373112
0.411108 0.1 0.075 0.00371658
0.411108 0.1 -0.075 0.00371863
0.0757758 0.1 -0.4125 0.00374806
0.0757758 0.1 0.4125 0.00374802
0 0.1 -0.43201 0.00375
0 0.1 0.43201 0.00375
0.0363518 0.1 -0.43201 0.0037492
0.0363518 0.1 0.43201 0.00374918
0.411108 0.1 -0.15 0.00372014
0.411108 0.1 0.15 0.00371704
0.350249 0.1 -0.2625 0.00372656
0.350249 0.1 0.2625 0.00372423
0 0.1 -0.45 0.00375
0 0.1 0.45 0.00375
0.219992 0.1 -0.4125 0.00373921
0.219992 0.1 0.4125 0.00373906
0 0.1 -0.46799 0.00375
0 0.1 0.46799 0.00375
0.411108 0.1 -0.225 0.00372142
0.411108 0.1 0.225 0.00371828
0.467897 0.1 0.0375 0.00371205
0.467897 0.1 -0.0375 0.00371336
0.0363518 0.1 -0.46799 0.00374946
0.0363518 0.1 0.46799 0.00374943
0.287374 0.1 -0.375 0.00373333
0.287374 0.1 0.375 0.00373234
0.150379 0.1 -0.45 0.00374385
0.150379 0.1 0.45 0.00374366
0.467897 0.1 -0.1125 0.00371501
0.467897 0.1 0.1125 0.00371175
0.350249 0.1 0.3375 0.00372571
0.350249 0.1 -0.3375 0.00372751
0.0757758 0.1 -0.4875 0.00374859
0.0757758 0.1 0.4875 0.00374854
0.467897 0.1 -0.1875 0.00371647
0.467897 0.1 0.1875 0.00371258
0 0.1 -0.50701 0.00375
0 0.1 0.50701 0.00375
0.0363518 0.1 -0.50701 0.00374946
0.0363518 0.1 0.50701 0.00374943
0.411108 0.1 -0.3 0.00372243
0.411108 0.1 0.3 0.00371975
0.522864 0.1 -2.08167e-17 0.00371029
0 0.1 -0.525 0.00375
0 0.1 0.525 0.00375
0.522864 0.1 -0.075 0.00371176
0.522864 0.1 0.075 0.00370936
0.287374 0.1 -0.45 0.00373394
0.287374 0.1 0.45 0.00373315
0.219992 0.1 -0.4875 0.00373992
0.219992 0.1 0.4875 0.00373945
0.467897 0.1 0.2625 0.00371398
0.467897 0.1 -0.2625 0.00371757
0.350249 0.1 -0.4125 0.00372817
0.350249 0.1 0.4125 0.00372691
0 0.1 -0.54299 0.00375
0 0.1 0.54299 0.00375
0.522864 0.1 0.15 0.00370938
0.522864 0.1 -0.15 0.00371322
0.0363518 0.1 -0.54299 0.00374973
0.0363518 0.1 0.54299 0.0037497
0.150379 0.1 -0.525 0.00374451
0.150379 0.1 0.525 0.0037442
0.411108 0.1 -0.375 0.00372317
0.411108 0.1 0.375 0.00372108
0.0757758 0.1 -0.5625 0.00374915
0.0757758 0.1 0.5625 0.00374908
0.522864 0.1 -0.225 0.00371436
0.522864 0.1 0.225 0.00371024
0.574156 0.1 -0.0375 0.00370862
0.574156 0.1 0.0375 0.00370722
0.467897 0.1 -0.3375 0.00371838
0.467897 0.1 0.3375 0.00371544
0 0.1 -0.58201 0.00375
0 0.1 0.58201 0.00375
0.0363518 0.1 -0.58201 0.00374973
0.0363518 0.1 0.58201 0.0037497
0.574156 0.1 -0.1125 0.00371013
0.574156 0.1 0.1125 0.00370651
0.287374 0.1 -0.525 0.00373473
0.287374 0.1 0.525 0.00373377
0 0.1 -0.6 0.00375
0 0.1 0.6 0.00375
0.350249 0.1 -0.4875 0.00372891
0.350249 0.1 0.4875 0.00372765
0.522864 0.1 0.3 0.00371146
0.522864 0.1 -0.3 0.00371514
0.219992 0.1 -0.5625 0.00374078
0.219992 0.1 0.5625 0.00374014
0.574156 0.1 -0.1875 0.00371137
0.574156 0.1 0.1875 0.00370678
0.411108 0.1 -0.45 0.00372379
0.411108 0.1 0.45 0.00372205
0 0.1 -0.61799 0.00375
0 0.1 0.61799 0.00375
0.150379 0.1 -0.6 0.0037452
0.150379 0.1 0.6 0.00374485
0.0363518 0.1 -0.61799 0.00374999
0.0363518 0.1 0.61799 0.00374996
0.467897 0.1 0.4125 0.00371662
0.467897 0.1 -0.4125 0.00371894
0.623803 0.1 1.04083e-17 0.00370769
0.623803 0.1 -0.075 0.00370907
0.623803 0.1 0.075 0.00370656
0.574156 0.1 -0.2625 0.00371215
0.574156 0.1 0.2625 0.00370772
0.623803 0.1 -0.15 0.00371027
0.623803 0.1 0.15 0.0037061
0.0757758 0.1 0.6375 0.00374962
0.0757758 0.1 -0.6375 0.00374968
0.522864 0.1 -0.375 0.00371559
0.522864 0.1 0.375 0.00371262
0 0.1 0.65701 0.00375
0 0.1 -0.65701 0.00375
0.0363518 0.1 0.65701 0.00374996
0.0363518 0.1 -0.65701 0.00374999
0.350249 0.1 -0.5625 0.00372973
0.350249 0.1 0.5625 0.00372832
0.623803 0.1 -0.225 0.00371106
0.623803 0.1 0.225 0.00370639
0.287374 0.1 -0.6 0.00373554
0.287374 0.1 0.6 0.0037345
0.574156 0.1 -0.3375 0.00371256
0.574156 0.1 0.3375 0.00370884
0.411108 0.1 -0.525 0.00372444
0.411108 0.1 0.525 0.00372269
0.67013 0.1 -0.0375 0.00370808
0.67013 0.1 0.0375 0.00370671
0.219992 0.1 0.6375 0.00374095
0.219992 0.1 -0.6375 0.00374158
0 0.1 -0.675 0.00375
0 0.1 0.675 0.00375
0.467897 0.1 -0.4875 0.00371945
0.467897 0.1 0.4875 0.00371735
0.67013 0.1 -0.1125 0.00370932
0.67013 0.1 0.1125 0.00370566
0.522864 0.1 -0.45 0.00371583
0.522864 0.1 0.45 0.0037134
0.150379 0.1 0.675 0.00374551
0.150379 0.1 -0.675 0.00374583
0.623803 0.1 0.3 0.0037071
0.623803 0.1 -0.3 0.00371137
0 0.1 -0.69299 0.00375
0 0.1 0.69299 0.00375
0.0363518 0.1 0.69299 0.00375021
0.0363518 0.1 -0.69299 0.00375023
0.67013 0.1 0.1875 0.00370533
0.67013 0.1 -0.1875 0.00371014
0.574156 0.1 -0.4125 0.00371261
0.574156 0.1 0.4125 0.00370971
0.714971 0.1 -1.82146e-17 0.00370917
0.0757758 0.1 0.7125 0.00375014
0.0757758 0.1 -0.7125 0.00375018
0.714971 0.1 -0.075 0.00371035
0.714971 0.1 0.075 0.00370792
0.67013 0.1 -0.2625 0.00371047
0.67013 0.1 0.2625 0.00370563
0.411108 0.1 -0.6 0.00372508
0.411108 0.1 0.6 0.00372327
0.350249 0.1 -0.6375 0.00373051
0.350249 0.1 0.6375 0.00372908
0.623803 0.1 -0.375 0.00371124
0.623803 0.1 0.375 0.00370781
0.714971 0.1 0.15 0.00370702
0.714971 0.1 -0.15 0.00371115
0.467897 0.1 -0.5625 0.00371997
0.467897 0.1 0.5625 0.0037178
0 0.1 -0.73201 0.00375
0 0.1 0.73201 0.00375
0.0363518 0.1 -0.73201 0.00375023
0.0363518 0.1 0.73201 0.00375021
0.287374 0.1 0.675 0.00373529
0.287374 0.1 -0.675 0.00373627
0.522864 0.1 -0.525 0.00371601
0.522864 0.1 0.525 0.00371376
0.219992 0.1 0.7125 0.00374172
0.219992 0.1 -0.7125 0.00374226
0.714971 0.1 0.225 0.00370668
0.714971 0.1 -0.225 0.00371141
0 0.1 0.75 0.00375
0 0.1 -0.75 0.00375
0.67013 0.1 -0.3375 0.0037102
0.67013 0.1 0.3375 0.00370614
0.574156 0.1 0.4875 0.00371007
0.574156 0.1 -0.4875 0.00371248
0.756814 0.1 -0.0375 0.0037114
0.756814 0.1 0.0375 0.00371015
0.150379 0.1 0.746002 0.00374617
0.150379 0.1 -0.75 0.00374638
0.756814 0.1 -0.1125 0.00371227
0.756814 0.1 0.1125 0.00370885
0 0.1 0.76799 0.00375
0 0.1 -0.76799 0.00375
0.0363518 0.1 0.76799 0.00375043
0.0363518 0.1 -0.76799 0.00375043
0.623803 0.1 -0.45 0.0037108
0.623803 0.1 0.45 0.00370815
0.714971 0.1 0.3 0.0037067
0.714971 0.1 -0.3 0.00371106
0.756814 0.1 -0.1875 0.00371256
0.756814 0.1 0.1875 0.00370795
0.67013 0.1 -0.4125 0.00370952
0.67013 0.1 0.4125 0.0037065
0.411108 0.1 -0.675 0.00372562
0.411108 0.1 0.675 0.0037239
0.467897 0.1 -0.6375 0.00372043
0.467897 0.1 0.6375 0.00371825
0.0757758 0.1 -0.7875 0.0037506
0.0757758 0.1 0.7875 0.0037506
0.350249 0.1 0.7125 0.00372987
0.350249 0.1 -0.7125 0.00373118
0.522864 0.1 -0.6 0.00371612
0.522864 0.1 0.6 0.0037139
0.797314 0.1 -2.86229e-17 0.00371432
0.287374 0.1 0.746002 0.00373611
0.797314 0.1 -0.075 0.00371522
0.797314 0.1 0.075 0.00371305
0.756814 0.1 0.2625 0.00370752
0.756814 0.1 -0.2625 0.00371219
0.287374 0.1 -0.75 0.0037369
0.574156 0.1 -0.5625 0.00371228
0.574156 0.1 0.5625 0.00371
0 0.1 0.80701 0.00375
0 0.1 -0.80701 0.00375
0.714971 0.1 -0.375 0.00371015
0.714971 0.1 0.375 0.00370675
0.0363518 0.1 -0.80701 0.00375043
0.0363518 0.1 0.80701 0.00375043
0.797314 0.1 -0.15 0.00371553
0.797314 0.1 0.15 0.00371177
0.623803 0.1 -0.525 0.00371019
0.623803 0.1 0.525 0.00370798
0.219992 0.1 0.7875 0.00374242
0.219992 0.1 -0.7875 0.00374284
0.149792 0.1 0.80701 0.00374655
0 0.1 0.825 0.00375
0 0.1 -0.825 0.00375
0.797314 0.1 -0.225 0.00371514
0.797314 0.1 0.225 0.00371079
0.756814 0.1 -0.3375 0.00371112
0.756814 0.1 0.3375 0.00370727
0.67013 0.1 -0.4875 0.00370856
0.67013 0.1 0.4875 0.0037063
0.835107 0.1 -0.0375 0.00371815
0.835107 0.1 0.0375 0.00371709
0.150379 0.1 -0.825 0.00374684
0.835107 0.1 -0.1125 0.00371859
0.835107 0.1 0.1125 0.00371562
0 0.1 0.84299 0.00375
0 0.1 -0.84299 0.00375
0.0363518 0.1 0.84299 0.00375062
0.0363518 0.1 -0.84299 0.00375061
0.714971 0.1 -0.45 0.00370884
0.714971 0.1 0.45 0.00370645
0.411108 0.1 0.746002 0.00372461
0.797314 0.1 -0.3 0.00371401
0.797314 0.1 0.3 0.00371005
0.467897 0.1 -0.7125 0.00372072
0.467897 0.1 0.7125 0.00371876
0.522864 0.1 0.675 0.00371402
0.522864 0.1 -0.675 0.00371613
0.411108 0.1 -0.75 0.00372604
0.835107 0.1 -0.1875 0.00371826
0.835107 0.1 0.1875 0.0037142
0.286844 0.1 0.80701 0.00373659
0.574156 0.1 0.6375 0.00370976
0.574156 0.1 -0.6375 0.003712
0.350249 0.1 -0.7875 0.00373175
0.350249 0.1 0.7875 0.00373063
0.756814 0.1 0.4125 0.00370686
0.756814 0.1 -0.4125 0.00370953
0.623803 0.1 -0.6 0.00370945
0.623803 0.1 0.6 0.00370743
0.0757758 0.1 0.8625 0.00375098
0.0757758 0.1 -0.8625 0.00375096
0.871687 0.1 -1.73472e-17 0.0037226
0.287374 0.1 -0.825 0.00373741
0.871687 0.1 -0.075 0.00372317
0.871687 0.1 0.075 0.00372137
0.67013 0.1 -0.5625 0.00370741
0.67013 0.1 0.5625 0.00370553
0.835107 0.1 0.2625 0.00371304
0.835107 0.1 -0.2625 0.0037171
0.797314 0.1 -0.375 0.00371219
0.797314 0.1 0.375 0.00370928
0 0.1 0.88201 0.00375
0 0.1 -0.88201 0.00375
0.0363518 0.1 0.88201 0.00375062
0.0363518 0.1 -0.88201 0.00375061
0.871687 0.1 0.15 0.0037198
0.871687 0.1 -0.15 0.00372293
0.714971 0.1 -0.525 0.00370723
0.714971 0.1 0.525 0.00370558
0.219992 0.1 0.8625 0.003743
0.219992 0.1 -0.8625 0.00374332
0 0.1 0.9 0.00375
0 0.1 -0.9 0.00375
0.756814 0.1 -0.4875 0.00370754
0.756814 0.1 0.4875 0.00370595
0.871687 0.1 -0.225 0.0037218
0.871687 0.1 0.225 0.00371821
0.835107 0.1 -0.3375 0.00371521
0.835107 0.1 0.3375 0.00371195
0.410629 0.1 0.80701 0.00372501
0.905821 0.1 -0.0375 0.0037277
0.905821 0.1 0.0375 0.00372688
0.522864 0.1 0.746002 0.00371425
0.150379 0.1 0.9 0.0037471
0.905821 0.1 0.1125 0.00372532
0.905821 0.1 -0.1125 0.00372767
0.522864 0.1 -0.75 0.00371602
0.574156 0.1 -0.7125 0.00371161
0.574156 0.1 0.7125 0.00370955
0.797314 0.1 -0.45 0.00370983
0.797314 0.1 0.45 0.00370818
0.467897 0.1 0.7875 0.00371927
0.467897 0.1 -0.7875 0.00372087
0.150379 0.1 -0.903998 0.0037471
0 0.1 0.91799 0.00375
0 0.1 -0.91799 0.00375
0.0363518 0.1 0.91799 0.00375077
0.0363518 0.1 -0.91799 0.00375075
0.623803 0.1 -0.675 0.0037086
0.623803 0.1 0.675 0.00370673
0.411108 0.1 -0.825 0.00372633
0.871687 0.1 -0.3 0.00371983
0.871687 0.1 0.3 0.00371669
0.67013 0.1 0.6375 0.00370442
0.67013 0.1 -0.6375 0.00370612
0.905821 0.1 -0.1875 0.00372665
0.905821 0.1 0.1875 0.00372346
0.350249 0.1 0.8625 0.00373129
0.350249 0.1 -0.8625 0.00373219
0.835107 0.1 -0.4125 0.00371254
0.835107 0.1 0.4125 0.00371064
0.714971 0.1 -0.6 0.00370542
0.714971 0.1 0.6 0.00370418
0.93886 0.1 -1.25767e-17 0.00373372
0.0757758 0.1 0.9375 0.0037513
0.0757758 0.1 -0.9375 0.00375125
0.93886 0.1 -0.075 0.00373394
0.93886 0.1 0.075 0.00373257
0.756814 0.1 -0.5625 0.00370526
0.756814 0.1 0.5625 0.00370435
0.905821 0.1 -0.2625 0.00372466
0.905821 0.1 0.2625 0.00372158
0.287374 0.1 0.9 0.00373728
0.287374 0.1 -0.903998 0.00373765
0.871687 0.1 -0.375 0.00371703
0.871687 0.1 0.375 0.00371502
0.93886 0.1 -0.15 0.00373314
0.93886 0.1 0.15 0.00373075
0.797314 0.1 -0.525 0.00370708
0.797314 0.1 0.525 0.00370647
0 0.1 0.95701 0.00375
0 0.1 -0.95701 0.00375
0.0363518 0.1 0.95701 0.00375077
0.0363518 0.1 -0.95701 0.00375075
0.522432 0.1 0.80701 0.00371432
0.219992 0.1 0.9375 0.00374347
0.219992 0.1 -0.9375 0.00374367
0.93886 0.1 -0.225 0.00373127
0.93886 0.1 0.225 0.00372862
0.905821 0.1 -0.3375 0.00372186
0.905821 0.1 0.3375 0.00371964
0.835107 0.1 0.4875 0.00370889
0.835107 0.1 -0.4875 0.00370938
0.96969 0.1 -0.0375 0.0037401
0.96969 0.1 0.0375 0.00373951
0.61613 0.1 0.75 0.00370605
0.574156 0.1 0.7875 0.00370937
0.574156 0.1 -0.7875 0.00371112
0 0.1 0.975 0.00375
0 0.1 -0.975 0.00375
0.623803 0.1 -0.75 0.00370765
0.96969 0.1 -0.1125 0.00373962
0.96969 0.1 0.1125 0.00373789
0.522864 0.1 -0.825 0.00371579
0.67013 0.1 -0.7125 0.00370474
0.67013 0.1 0.7125 0.00370325
0.871687 0.1 -0.45 0.00371351
0.871687 0.1 0.45 0.00371301
0.467897 0.1 -0.8625 0.0037209
0.467897 0.1 0.8625 0.00371968
0.714971 0.1 -0.675 0.00370346
0.714971 0.1 0.675 0.00370249
0.93886 0.1 -0.3 0.00372844
0.93886 0.1 0.3 0.00372635
0.150379 0.1 0.975 0.00374744
0.150379 0.1 -0.975 0.00374749
0.96969 0.1 -0.1875 0.00373796
0.96969 0.1 0.1875 0.00373566
0.411108 0.1 0.9 0.00372558
0.756814 0.1 -0.6375 0.00370277
0.756814 0.1 0.6375 0.00370225
0.990306 0.1 0 0.00374106
0 0.1 0.99299 0.00375
0 0.1 -0.99299 0.00375
0.411108 0.1 -0.903998 0.00372636
0.990306 0.1 -0.075 0.00374104
0.990306 0.1 0.075 0.00373998
0.0363518 0.1 0.99299 0.00375089
0.0363518 0.1 -0.99299 0.00375085
0.905821 0.1 -0.4125 0.00371805
0.905821 0.1 0.4125 0.00371733
0.797314 0.1 -0.6 0.00370405
0.797314 0.1 0.6 0.00370411
0.350249 0.1 0.9375 0.00373182
0.350249 0.1 -0.9375 0.00373248
0.990306 0.1 -0.15 0.00373985
0.990306 0.1 0.15 0.00373802
0.96969 0.1 -0.2625 0.00373519
0.96969 0.1 0.2625 0.00373313
0.835107 0.1 -0.5625 0.00370585
0.835107 0.1 0.5625 0.00370636
0.93886 0.1 -0.375 0.00372457
0.93886 0.1 0.375 0.0037238
0.0757758 0.1 1.0125 0.00375155
0.0757758 0.1 -1.0125 0.00375148
0.990306 0.1 -0.225 0.00373749
0.990306 0.1 0.225 0.00373553
0.287374 0.1 -0.975 0.00373806
0.287374 0.1 0.975 0.00373771
0.871687 0.1 -0.525 0.00370947
0.871687 0.1 0.525 0.00371037
1.02149 0.1 -0.0369628 0.00374852
1.02149 0.1 0.0369628 0.00374813
0.96969 0.1 0.3375 0.0037304
0.96969 0.1 -0.3375 0.00373142
1.02149 0.1 -0.110888 0.00374774
1.02149 0.1 0.110888 0.00374657
0.905821 0.1 -0.4875 0.00371362
0.905821 0.1 0.4875 0.00371468
0.623803 0.1 0.819003 0.0037051
0 0.1 1.03201 0.00375
0 0.1 -1.03201 0.00375
0.0363518 0.1 1.03201 0.00375089
0.0363518 0.1 -1.03201 0.00375085
0.67013 0.1 -0.7875 0.00370325
0.67013 0.1 0.7875 0.00370213
0.623803 0.1 -0.825 0.00370661
0.990306 0.1 0.3 0.00373272
0.990306 0.1 -0.3 0.00373403
0.219992 0.1 1.0125 0.00374382
0.219992 0.1 -1.0125 0.00374391
0.574156 0.1 0.8625 0.00370924
0.574156 0.1 -0.8625 0.00371055
0.714971 0.1 -0.75 0.0037014
0.714971 0.1 0.75 0.00370076
1.02149 0.1 -0.184814 0.00374569
1.02149 0.1 0.184814 0.00374416
0.756814 0.1 -0.7125 0.00370014
0.756814 0.1 0.7125 0.00369993
0.522864 0.1 0.9 0.00371442
0.93886 0.1 -0.45 0.00371975
0.93886 0.1 0.45 0.00372086
1.04168 0.1 0 0.00375335
1.04168 0.1 -0.0729162 0.00375308
1.04168 0.1 0.0729162 0.00375242
0.522864 0.1 -0.903998 0.00371538
0.797314 0.1 -0.675 0.00370079
0.797314 0.1 0.675 0.00370133
0.467897 0.1 0.9375 0.00371996
0.467897 0.1 -0.9375 0.00372079
0 0.1 1.05 0.00375
0 0.1 -1.05 0.00375
0.835107 0.1 -0.6375 0.00370204
0.835107 0.1 0.6375 0.00370319
1.04168 0.1 -0.145832 0.00375156
1.04168 0.1 0.145832 0.00375042
1.02149 0.1 -0.25874 0.00374245
1.02149 0.1 0.25874 0.00374122
0.96969 0.1 -0.4125 0.00372635
0.96969 0.1 0.4125 0.00372721
0.411108 0.1 0.975 0.00372592
0.411108 0.1 -0.975 0.00372652
0.871687 0.1 -0.6 0.00370503
0.871687 0.1 0.6 0.00370694
1.0579 0.1 -0.0360525 0.0037579
1.0579 0.1 0.0360525 0.00375765
0.990306 0.1 -0.375 0.00372936
0.990306 0.1 0.375 0.00372955
0.150379 0.1 1.05 0.0037477
0.150379 0.1 -1.05 0.00374768
1.0579 0.1 -0.108157 0.00375696
1.0579 0.1 0.108157 0.00375617
1.04168 0.1 -0.218749 0.00374879
1.04168 0.1 0.218749 0.00374765
0.905821 0.1 -0.5625 0.00370863
0.905821 0.1 0.5625 0.00371108
0 0.1 1.06799 0.00375
0 0.1 -1.06799 0.00375
0.0363518 0.1 -1.06799 0.00375093
0.0363518 0.1 1.06799 0.00375097
0.350249 0.1 1.0125 0.00373222
0.350249 0.1 -1.0125 0.00373264
1.0579 0.1 -0.180262 0.0037547
1.0579 0.1 0.180262 0.00375371
1.02149 0.1 0.332665 0.00373791
1.02149 0.1 -0.332665 0.00373805
0.93886 0.1 -0.525 0.00371429
0.93886 0.1 0.525 0.00371722
1.08012 0.1 4.48137e-18 0.00376414
1.04168 0.1 -0.291665 0.00374482
1.04168 0.1 0.291665 0.00374439
1.08012 0.1 -0.0709942 0.00376373
1.08012 0.1 0.0709942 0.00376332
0.96969 0.1 -0.4875 0.00372043
0.96969 0.1 0.4875 0.00372362
1.0579 0.1 -0.252367 0.00375122
1.0579 0.1 0.252367 0.00375059
0.990306 0.1 -0.45 0.00372355
0.990306 0.1 0.45 0.00372593
0.287374 0.1 1.05 0.00373803
0.287374 0.1 -1.05 0.00373821
0.714971 0.1 0.821002 0.00369915
1.08012 0.1 0.141988 0.00376135
1.08012 0.1 -0.141988 0.00376204
0.0757758 0.1 -1.0875 0.00375163
0.0757758 0.1 1.0875 0.00375171
0.714971 0.1 -0.825 0.00369924
0.756814 0.1 -0.7875 0.00369742
0.756814 0.1 0.7875 0.00369764
0.67013 0.1 -0.8625 0.00370167
0.67013 0.1 0.8625 0.00370105
0.797314 0.1 -0.75 0.00369739
0.797314 0.1 0.75 0.00369838
0.623803 0.1 0.9 0.00370481
0.835107 0.1 -0.7125 0.00369801
0.835107 0.1 0.7125 0.00369966
0.623803 0.1 -0.903998 0.00370552
0.574156 0.1 0.9375 0.00370908
0.574156 0.1 -0.9375 0.00370983
1.02149 0.1 -0.406591 0.00373222
1.02149 0.1 0.406591 0.0037341
1.08012 0.1 -0.212982 0.00375907
1.08012 0.1 0.212982 0.0037585
1.10076 0.1 -0.034981 0.0037702
1.10076 0.1 0.034981 0.00377008
0.871687 0.1 -0.675 0.00370029
0.871687 0.1 0.675 0.00370295
1.04168 0.1 -0.364581 0.0037395
1.04168 0.1 0.364581 0.00374065
1.10076 0.1 0.104943 0.00376867
1.10076 0.1 -0.104943 0.00376913
0.522864 0.1 0.975 0.00371441
0.522864 0.1 -0.975 0.00371498
1.0579 0.1 0.324472 0.003747
1.0579 0.1 -0.324472 0.00374649
0 0.1 1.10701 0.00375
0 0.1 -1.10701 0.00375
0.0363518 0.1 -1.10701 0.00375093
0.0363518 0.1 1.10701 0.00375097
0.905821 0.1 -0.6375 0.00370324
0.905821 0.1 0.6375 0.00370671
0.219992 0.1 -1.0875 0.00374404
0.219992 0.1 1.0875 0.00374406
0.93886 0.1 -0.6 0.00370837
0.93886 0.1 0.6 0.00371262
1.10076 0.1 0.174905 0.00376617
1.10076 0.1 -0.174905 0.00376669
0.467897 0.1 1.0125 0.0037201
0.467897 0.1 -1.0125 0.00372059
1.08012 0.1 -0.283977 0.00375485
1.08012 0.1 0.283977 0.00375502
1.11929 0.1 1.20274e-17 0.00377574
0.990306 0.1 -0.525 0.00371706
0.990306 0.1 0.525 0.00372154
0.96969 0.1 -0.5625 0.00371397
0.96969 0.1 0.5625 0.00371892
1.11929 0.1 0.0690357 0.00377502
1.11929 0.1 -0.0690357 0.00377522
0 0.1 1.125 0.00375
0 0.1 -1.125 0.00375
0.411108 0.1 1.05 0.00372614
0.411108 0.1 -1.05 0.00372646
1.10076 0.1 -0.244867 0.00376302
1.10076 0.1 0.244867 0.00376288
1.11929 0.1 -0.138071 0.00377342
1.11929 0.1 0.138071 0.00377309
1.02149 0.1 0.480517 0.00372977
1.02149 0.1 -0.480517 0.00372534
1.0579 0.1 -0.396577 0.00374024
1.0579 0.1 0.396577 0.00374287
1.04168 0.1 -0.437497 0.00373284
1.04168 0.1 0.437497 0.00373638
0.150379 0.1 1.125 0.00374786
0.150379 0.1 -1.125 0.00374778
0.714971 0.1 0.88201 0.0036967
1.08012 0.1 -0.354971 0.00374918
1.08012 0.1 0.354971 0.00375101
1.11929 0.1 0.207107 0.00377019
1.11929 0.1 -0.207107 0.00377033
0.350249 0.1 1.0875 0.0037325
0.350249 0.1 -1.0875 0.00373269
0 0.1 -1.14299 0.00375
0 0.1 1.14299 0.00375
0.0363518 0.1 1.14299 0.00375102
0.0363518 0.1 -1.14299 0.00375097
1.14316 0.1 0.0339211 0.00378336
1.14316 0.1 -0.0339211 0.00378337
0.797314 0.1 0.821002 0.00369561
1.10076 0.1 -0.314829 0.00375802
1.10076 0.1 0.314829 0.00375901
0.797314 0.1 -0.825 0.00369392
0.756814 0.1 0.8625 0.00369543
0.756814 0.1 -0.8625 0.00369464
1.14316 0.1 0.101763 0.00378207
1.14316 0.1 -0.101763 0.00378219
0.835107 0.1 -0.7875 0.00369382
0.835107 0.1 0.7875 0.00369604
0.871687 0.1 -0.75 0.0036954
0.871687 0.1 0.75 0.00369865
0.67013 0.1 0.9375 0.00370003
0.67013 0.1 -0.9375 0.00370014
0.905821 0.1 -0.7125 0.00369756
0.905821 0.1 0.7125 0.00370184
0.714971 0.1 -0.903998 0.00369722
1.11929 0.1 -0.276143 0.00376593
1.11929 0.1 0.276143 0.00376656
1.14316 0.1 -0.169605 0.00377965
1.14316 0.1 0.169605 0.00377964
0.93886 0.1 -0.675 0.00370217
0.93886 0.1 0.675 0.00370732
1.15704 0.1 0 0.0037877
1.0579 0.1 -0.468682 0.00373283
1.0579 0.1 0.468682 0.00373815
0.623803 0.1 0.975 0.0037042
0.623803 0.1 -0.975 0.00370436
0.990306 0.1 -0.6 0.00371012
0.990306 0.1 0.6 0.00371608
1.15704 0.1 -0.0671479 0.0037871
1.15704 0.1 0.0671479 0.00378707
1.04168 0.1 -0.510414 0.00372551
1.04168 0.1 0.510414 0.00373138
0.96969 0.1 -0.6375 0.00370717
0.96969 0.1 0.6375 0.00371321
1.08012 0.1 -0.425965 0.00374207
1.08012 0.1 0.425965 0.00374641
0.287374 0.1 1.125 0.00373824
0.287374 0.1 -1.125 0.00373824
1.02149 0.1 -0.554442 0.0037181
1.02149 0.1 0.554442 0.00372446
0.574156 0.1 1.0125 0.00370883
0.574156 0.1 -1.0125 0.00370903
1.15704 0.1 -0.134296 0.00378524
1.15704 0.1 0.134296 0.00378521
0.0757758 0.1 -1.1625 0.00375172
0.0757758 0.1 1.1625 0.00375182
1.10076 0.1 -0.384791 0.0037514
1.10076 0.1 0.384791 0.00375457
1.14316 0.1 -0.237448 0.00377587
1.14316 0.1 0.237448 0.00377631
1.11929 0.1 0.345179 0.00376233
1.11929 0.1 -0.345179 0.00376003
0.522864 0.1 1.05 0.0037143
0.522864 0.1 -1.05 0.00371447
1.15704 0.1 -0.201444 0.00378208
1.15704 0.1 0.201444 0.0037823
1.1744 0.1 -0.0331401 0.00379311
1.1744 0.1 0.0331401 0.00379315
1.1744 0.1 0.0994203 0.00379191
1.1744 0.1 -0.0994203 0.00379193
0 0.1 1.18201 0.00375
0 0.1 -1.18201 0.00375
0.0363518 0.1 -1.18201 0.00375097
0.0363518 0.1 1.18201 0.00375102
0.219992 0.1 -1.1625 0.00374408
0.219992 0.1 1.1625 0.0037442
1.14316 0.1 -0.30529 0.00377067
1.14316 0.1 0.30529 0.00377228
0.467897 0.1 -1.0875 0.00372034
0.467897 0.1 1.0875 0.00372016
1.1744 0.1 -0.1657 0.0037894
1.1744 0.1 0.1657 0.00378951
1.15704 0.1 -0.268592 0.0037776
1.15704 0.1 0.268592 0.00377858
1.0579 0.1 0.540787 0.00373253
1.0579 0.1 -0.540787 0.00372516
0.796996 0.1 0.88201 0.00369332
1.08012 0.1 0.496959 0.00374107
1.08012 0.1 -0.496959 0.00373429
1.10076 0.1 -0.454752 0.0037434
1.10076 0.1 0.454752 0.00374948
1.11929 0.1 -0.414214 0.00375259
1.11929 0.1 0.414214 0.00375746
1.04168 0.1 -0.58333 0.00371767
1.04168 0.1 0.58333 0.00372528
1.1744 0.1 -0.231981 0.00378566
1.1744 0.1 0.231981 0.00378617
0.871687 0.1 0.821002 0.0036945
0.411108 0.1 1.125 0.00372625
0.411108 0.1 -1.125 0.0037263
1.19808 0.1 0 0.00380173
0.990306 0.1 -0.675 0.00370289
0.990306 0.1 0.675 0.00370984
1.02149 0.1 0.628368 0.003718
1.02149 0.1 -0.628368 0.00371027
1.19808 0.1 0.0650961 0.00380118
1.19808 0.1 -0.0650961 0.00380107
0 0.1 1.2 0.00375
0 0.1 -1.2 0.00375
0.871687 0.1 -0.825 0.00369048
0.905821 0.1 -0.7875 0.00369196
0.905821 0.1 0.7875 0.00369672
0.835107 0.1 0.8625 0.0036925
0.835107 0.1 -0.8625 0.00368971
0.93886 0.1 -0.75 0.0036958
0.93886 0.1 0.75 0.00370165
1.14316 0.1 -0.373132 0.00376383
1.14316 0.1 0.373132 0.00376764
0.96969 0.1 -0.7125 0.00370026
0.96969 0.1 0.7125 0.003707
1.15704 0.1 -0.33574 0.00377156
1.15704 0.1 0.33574 0.00377418
0.756814 0.1 0.9375 0.00369328
0.756814 0.1 -0.9375 0.00369196
1.19808 0.1 -0.130192 0.00379918
1.19808 0.1 0.130192 0.00379941
0.797314 0.1 -0.903998 0.0036908
0.714971 0.1 -0.975 0.00369503
0.714971 0.1 0.975 0.00369589
0.150379 0.1 -1.2 0.00374781
0.150379 0.1 1.2 0.00374794
1.20938 0.1 -0.0322656 0.00380504
1.20938 0.1 0.0322656 0.00380514
1.1744 0.1 -0.298261 0.00378047
1.1744 0.1 0.298261 0.00378207
1.20938 0.1 -0.0967968 0.00380382
1.20938 0.1 0.0967968 0.00380399
1.19808 0.1 0.195288 0.00379655
1.19808 0.1 -0.195288 0.00379601
0.350249 0.1 -1.1625 0.00373261
0.350249 0.1 1.1625 0.00373264
0.67013 0.1 -1.0125 0.00369864
0.67013 0.1 1.0125 0.00369904
0 0.1 1.21799 0.00375
0 0.1 -1.21799 0.00375
0.0363518 0.1 1.21799 0.00375104
0.0363518 0.1 -1.21799 0.00375099
1.11929 0.1 -0.48325 0.00374443
1.11929 0.1 0.48325 0.00375185
1.10076 0.1 -0.524714 0.00373539
1.10076 0.1 0.524714 0.00374355
1.20938 0.1 0.161328 0.00380165
1.20938 0.1 -0.161328 0.00380126
1.08012 0.1 -0.567953 0.00372594
1.08012 0.1 0.567953 0.00373466
0.623803 0.1 1.05 0.00370354
0.623803 0.1 -1.05 0.0037032
1.0579 0.1 0.612892 0.0037257
1.0579 0.1 -0.612892 0.0037167
1.15704 0.1 -0.402888 0.00376391
1.15704 0.1 0.402888 0.00376913
1.14316 0.1 -0.440974 0.00375556
1.14316 0.1 0.440974 0.00376229
1.19808 0.1 -0.260384 0.00379153
1.19808 0.1 0.260384 0.0037928
1.2267 0.1 0 0.00381201
1.2267 0.1 -0.0636648 0.0038113
1.2267 0.1 0.0636648 0.00381154
1.1744 0.1 -0.364541 0.00377361
1.1744 0.1 0.364541 0.00377735
0.574156 0.1 -1.0875 0.00370826
0.574156 0.1 1.0875 0.00370845
1.20938 0.1 0.225859 0.00379831
1.20938 0.1 -0.225859 0.00379753
1.04168 0.1 -0.656246 0.0037093
1.04168 0.1 0.656246 0.00371832
1.2267 0.1 -0.12733 0.00380936
1.2267 0.1 0.12733 0.00380983
0.287374 0.1 -1.2 0.00373816
0.287374 0.1 1.2 0.0037383
1.02149 0.1 -0.702294 0.00370221
1.02149 0.1 0.702294 0.00371102
0.0757758 0.1 1.2375 0.00375187
0.0757758 0.1 -1.2375 0.00375176
0.871399 0.1 0.88201 0.00369109
0.522864 0.1 -1.125 0.00371393
0.522864 0.1 1.125 0.0037141
1.2267 0.1 -0.190995 0.00380617
1.2267 0.1 0.190995 0.003807
1.19808 0.1 -0.32548 0.00378548
1.19808 0.1 0.32548 0.00378832
0.990306 0.1 -0.75 0.00369543
0.990306 0.1 0.75 0.00370321
1.24275 0.1 -0.0314313 0.00381754
1.24275 0.1 0.0314313 0.00381771
1.20938 0.1 -0.29039 0.00379234
1.20938 0.1 0.29039 0.00379415
1.24275 0.1 -0.0942939 0.00381624
1.24275 0.1 0.0942939 0.00381665
0.93886 0.1 0.821002 0.0036961
1.11929 0.1 -0.552286 0.00373568
1.11929 0.1 0.552286 0.0037452
1.15704 0.1 -0.470036 0.00375541
1.15704 0.1 0.470036 0.00376331
0.96969 0.1 -0.7875 0.00369305
0.96969 0.1 0.7875 0.00370056
0.93886 0.1 -0.825 0.00368933
0.905821 0.1 -0.8625 0.00368623
0.905821 0.1 0.8625 0.00369159
1.1744 0.1 -0.430821 0.00376517
1.1744 0.1 0.430821 0.00377191
1.10076 0.1 -0.594676 0.00372624
1.10076 0.1 0.594676 0.00373636
1.14316 0.1 -0.508816 0.00374711
1.14316 0.1 0.508816 0.00375612
1.24275 0.1 -0.157157 0.00381361
1.24275 0.1 0.157157 0.00381437
1.2267 0.1 -0.254659 0.00380167
1.2267 0.1 0.254659 0.00380322
0.467897 0.1 -1.1625 0.00372001
0.467897 0.1 1.1625 0.00372013
1.08012 0.1 -0.638947 0.00371685
1.08012 0.1 0.638947 0.00372734
1.25511 0.1 0 0.00382316
0.835107 0.1 -0.9375 0.0036857
0.835107 0.1 0.9375 0.00368906
0.871687 0.1 -0.903998 0.00368607
1.25511 0.1 -0.0622446 0.00382234
1.25511 0.1 0.0622446 0.00382279
0.219992 0.1 -1.2375 0.00374404
0.219992 0.1 1.2375 0.00374423
0 0.1 -1.25701 0.00375
0 0.1 1.25701 0.00375
0.0363518 0.1 1.25701 0.00375104
0.0363518 0.1 -1.25701 0.00375099
0.797314 0.1 0.975 0.00368986
0.797314 0.1 -0.975 0.0036873
1.19808 0.1 -0.390576 0.00377777
1.19808 0.1 0.390576 0.00378315
1.0579 0.1 0.684997 0.00371831
1.0579 0.1 -0.684997 0.00370782
1.20938 0.1 -0.354921 0.00378546
1.20938 0.1 0.354921 0.00378933
1.25511 0.1 -0.124489 0.00382026
1.25511 0.1 0.124489 0.00382116
1.24275 0.1 -0.220019 0.00380985
1.24275 0.1 0.220019 0.00381103
0.756814 0.1 -1.0125 0.00368949
0.756814 0.1 1.0125 0.00369125
1.2267 0.1 -0.318324 0.00379559
1.2267 0.1 0.318324 0.00379866
0.411108 0.1 -1.2 0.00372604
0.411108 0.1 1.2 0.00372623
1.25511 0.1 0.186734 0.00381835
1.25511 0.1 -0.186734 0.00381695
0.714971 0.1 1.05 0.0036944
0.714971 0.1 -1.05 0.00369307
1.04168 0.1 -0.729162 0.00370058
1.04168 0.1 0.729162 0.00371084
1.24275 0.1 0.282882 0.0038068
1.24275 0.1 -0.282882 0.00380462
0 0.1 1.275 0.00375
0 0.1 -1.275 0.00375
1.1744 0.1 -0.497101 0.00375646
1.1744 0.1 0.497101 0.00376568
1.15704 0.1 -0.537184 0.00374635
1.15704 0.1 0.537184 0.00375653
1.2756 0.1 -0.0306099 0.00383187
1.2756 0.1 0.0306099 0.00383218
0.67013 0.1 -1.0875 0.00369712
0.67013 0.1 1.0875 0.00369803
1.2756 0.1 0.0918298 0.00383124
1.2756 0.1 -0.0918298 0.00383038
1.25511 0.1 -0.248978 0.00381234
1.25511 0.1 0.248978 0.00381453
1.20938 0.1 0.419453 0.0037838
1.20938 0.1 -0.419453 0.00377697
1.11929 0.1 -0.621321 0.00372596
1.11929 0.1 0.621321 0.00373758
1.14316 0.1 -0.576658 0.00373754
1.14316 0.1 0.576658 0.00374879
1.19808 0.1 -0.455672 0.003769
1.19808 0.1 0.455672 0.00377723
1.02149 0.1 0.776219 0.00370363
1.02149 0.1 -0.776219 0.00369378
0.150379 0.1 1.275 0.00374795
0.150379 0.1 -1.275 0.00374779
1.2756 0.1 -0.15305 0.00382757
1.2756 0.1 0.15305 0.00382902
1.2267 0.1 -0.381989 0.00378786
1.2267 0.1 0.381989 0.00379341
1.10076 0.1 -0.664638 0.00371647
1.10076 0.1 0.664638 0.00372857