# kMean  POINT_DATA 63889
# x  y  z  kMean
0 0.5 3.39582e-17 0.00375
0 0.5 -0.00617965 0.00375
0 0.5 0.00617965 0.00375
0.0124871 0.5 -0.00617965 0.00375031
0.0124871 0.5 0.00617965 0.00375031
0 0.5 -0.0688203 0.00375
0 0.5 0.0688203 0.00375
0.0124871 0.5 -0.0688203 0.00375031
0.0124871 0.5 0.0688203 0.00375031
0 0.5 -0.075 0.00375
0 0.5 0.075 0.00375
0 0.5 -0.0811797 0.00375
0 0.5 0.0811797 0.00375
0.0124871 0.5 -0.0811797 0.00375031
0.0124871 0.5 0.0811797 0.00375031
0.0757758 0.5 -0.0375 0.00375187
0.0757758 0.5 0.0375 0.00375187
0.0757758 0.5 -0.1125 0.0037519
0.0757758 0.5 0.1125 0.00375192
0 0.5 -0.14382 0.00375
0 0.5 0.14382 0.00375
0.0124871 0.5 -0.14382 0.00375031
0.0124871 0.5 0.14382 0.00375031
0 0.5 -0.15 0.00375
0 0.5 0.15 0.00375
0.151149 0.5 -0.00137326 0.00375411
0 0.5 -0.15618 0.00375
0 0.5 0.15618 0.00375
0.0124871 0.5 -0.15618 0.00375033
0.0124871 0.5 0.15618 0.00375033
0.151149 0.5 -0.075 0.00375418
0.151149 0.5 0.075 0.00375416
0.0757758 0.5 -0.1875 0.00375201
0.0757758 0.5 0.1875 0.00375203
0.151149 0.5 -0.15 0.00375434
0.151149 0.5 0.15 0.0037543
0 0.5 -0.21882 0.00375
0 0.5 0.21882 0.00375
0.0124871 0.5 -0.21882 0.00375033
0.0124871 0.5 0.21882 0.00375033
0.219992 0.5 -0.0375 0.00375626
0.219992 0.5 0.0375 0.00375623
0 0.5 -0.225 0.00375
0 0.5 0.225 0.00375
0 0.5 -0.23118 0.00375
0 0.5 0.23118 0.00375
0.0124871 0.5 -0.23118 0.00375035
0.0124871 0.5 0.23118 0.00375036
0.219992 0.5 -0.1125 0.00375641
0.219992 0.5 0.1125 0.00375634
0.151149 0.5 -0.225 0.0037546
0.151149 0.5 0.225 0.00375453
0.0757758 0.5 -0.2625 0.00375216
0.0757758 0.5 0.2625 0.0037522
0.288069 0.5 -0.00137326 0.00376074
0.219992 0.5 -0.1875 0.00375673
0.219992 0.5 0.1875 0.00375659
0 0.5 -0.29382 0.00375
0 0.5 0.29382 0.00375
0.0124871 0.5 -0.29382 0.00375035
0.0124871 0.5 0.29382 0.00375036
0.288069 0.5 -0.075 0.00376091
0.288069 0.5 0.075 0.00376078
0 0.5 -0.3 0.00375
0 0.5 0.3 0.00375
0 0.5 -0.30618 0.00375
0 0.5 0.30618 0.00375
0.0124871 0.5 -0.30618 0.00375039
0.0124871 0.5 0.30618 0.00375039
0.288069 0.5 -0.15 0.00376118
0.288069 0.5 0.15 0.00376093
0.151149 0.5 -0.3 0.00375493
0.151149 0.5 0.3 0.00375485
0.219992 0.5 -0.2625 0.00375717
0.219992 0.5 0.2625 0.00375699
0.0757758 0.5 -0.3375 0.00375234
0.0757758 0.5 0.3375 0.00375239
0.350249 0.5 -0.0375 0.00376507
0.350249 0.5 0.0375 0.00376498
0.288069 0.5 -0.225 0.0037616
0.288069 0.5 0.225 0.00376124
0.350249 0.5 -0.1125 0.00376531
0.350249 0.5 0.1125 0.00376502
0 0.5 0.36882 0.00375
0 0.5 -0.36882 0.00375
0.0124871 0.5 -0.36882 0.00375039
0.0124871 0.5 0.36882 0.00375039
0 0.5 -0.375 0.00375
0 0.5 0.375 0.00375
0 0.5 -0.38118 0.00375
0 0.5 0.38118 0.00375
0.0124871 0.5 -0.38118 0.00375042
0.0124871 0.5 0.38118 0.00375043
0.350249 0.5 -0.1875 0.00376569
0.350249 0.5 0.1875 0.00376522
0.219992 0.5 -0.3375 0.00375769
0.219992 0.5 0.3375 0.00375749
0.151149 0.5 -0.375 0.0037553
0.151149 0.5 0.375 0.00375523
0.411736 0.5 -0.00137326 0.00377204
0.288069 0.5 -0.3 0.00376213
0.288069 0.5 0.3 0.00376169
0.411736 0.5 -0.075 0.00377227
0.411736 0.5 0.075 0.00377202
0.0757758 0.5 -0.4125 0.00375254
0.0757758 0.5 0.4125 0.0037526
0.350249 0.5 -0.2625 0.00376623
0.350249 0.5 0.2625 0.0037656
0.411736 0.5 -0.15 0.00377257
0.411736 0.5 0.15 0.00377206
0 0.5 -0.44382 0.00375
0 0.5 0.44382 0.00375
0.0124871 0.5 -0.44382 0.00375042
0.0124871 0.5 0.44382 0.00375043
0 0.5 -0.45 0.00375
0 0.5 0.45 0.00375
0 0.5 -0.45618 0.00375
0 0.5 0.45618 0.00375
0.0124871 0.5 -0.45618 0.00375045
0.0124871 0.5 0.45618 0.00375046
0.219992 0.5 -0.4125 0.00375825
0.219992 0.5 0.4125 0.00375806
0.411736 0.5 0.225 0.00377225
0.411736 0.5 -0.225 0.00377298
0.467897 0.5 0.0375 0.00377866
0.467897 0.5 -0.0375 0.00377881
0.288069 0.5 -0.375 0.0037627
0.288069 0.5 0.375 0.00376224
0.151149 0.5 -0.45 0.00375569
0.151149 0.5 0.45 0.00375563
0.467897 0.5 -0.1125 0.00377905
0.467897 0.5 0.1125 0.00377858
0.350249 0.5 -0.3375 0.00376682
0.350249 0.5 0.3375 0.00376611
0.0757758 0.5 0.4875 0.00375281
0.0757758 0.5 -0.4875 0.00375275
0.467897 0.5 -0.1875 0.00377939
0.467897 0.5 0.1875 0.0037786
0.411736 0.5 -0.3 0.00377346
0.411736 0.5 0.3 0.00377259
0 0.5 -0.51882 0.00375
0 0.5 0.51882 0.00375
0.0124871 0.5 -0.51882 0.00375045
0.0124871 0.5 0.51882 0.00375046
0.523432 0.5 -0.00137326 0.00378808
0 0.5 -0.525 0.00375
0 0.5 0.525 0.00375
0.523432 0.5 -0.075 0.00378833
0.523432 0.5 0.075 0.003788
0 0.5 -0.53118 0.00375
0 0.5 0.53118 0.00375
0.0124871 0.5 -0.53118 0.00375048
0.0124871 0.5 0.53118 0.0037505
0.288069 0.5 -0.45 0.00376328
0.288069 0.5 0.45 0.00376284
0.219992 0.5 -0.4875 0.00375882
0.219992 0.5 0.4875 0.00375866
0.467897 0.5 -0.2625 0.00377978
0.467897 0.5 0.2625 0.00377876
0.350249 0.5 -0.4125 0.00376744
0.350249 0.5 0.4125 0.00376671
0.523432 0.5 -0.15 0.00378855
0.523432 0.5 0.15 0.00378786
0.151149 0.5 -0.525 0.00375607
0.151149 0.5 0.525 0.00375604
0.411736 0.5 -0.375 0.00377395
0.411736 0.5 0.375 0.00377302
0.0757758 0.5 -0.5625 0.00375294
0.0757758 0.5 0.5625 0.00375302
0.523432 0.5 -0.225 0.00378878
0.523432 0.5 0.225 0.0037878
0.574156 0.5 0.0375 0.00379696
0.574156 0.5 -0.0375 0.00379713
0.467897 0.5 -0.3375 0.00378019
0.467897 0.5 0.3375 0.00377906
0.574156 0.5 -0.1125 0.00379729
0.574156 0.5 0.1125 0.00379674
0 0.5 -0.59382 0.00375
0 0.5 0.59382 0.00375
0.0124871 0.5 -0.59382 0.00375048
0.0124871 0.5 0.59382 0.0037505
0.288069 0.5 -0.525 0.00376383
0.288069 0.5 0.525 0.00376345
0 0.5 -0.6 0.00375
0 0.5 0.6 0.00375
0.350249 0.5 0.4875 0.00376735
0.350249 0.5 -0.4875 0.00376802
0.523432 0.5 -0.3 0.00378899
0.523432 0.5 0.3 0.00378784
0.219992 0.5 -0.5625 0.00375935
0.219992 0.5 0.5625 0.00375925
0.574156 0.5 -0.1875 0.00379743
0.574156 0.5 0.1875 0.00379651
0 0.5 -0.60618 0.00375
0 0.5 0.60618 0.00375
0.0124871 0.5 -0.60618 0.00375051
0.0124871 0.5 0.60618 0.00375053
0.411736 0.5 -0.45 0.00377441
0.411736 0.5 0.45 0.00377351
0.151149 0.5 -0.6 0.00375642
0.151149 0.5 0.6 0.00375643
0.62168 0.5 4.33681e-17 0.00380785
0.467897 0.5 -0.4125 0.00378056
0.467897 0.5 0.4125 0.00377941
0.624316 0.5 0.0729401 0.00380832
0.624316 0.5 -0.075 0.00380865
0.574156 0.5 -0.2625 0.0037975
0.574156 0.5 0.2625 0.00379632
0.0757758 0.5 -0.6375 0.00375311
0.0757758 0.5 0.6375 0.0037532
0.624316 0.5 -0.15 0.00380866
0.624316 0.5 0.15 0.00380798
0.523432 0.5 -0.375 0.00378914
0.523432 0.5 0.375 0.00378795
0.350249 0.5 -0.5625 0.00376855
0.350249 0.5 0.5625 0.00376798
0.624316 0.5 -0.225 0.00380857
0.624316 0.5 0.225 0.00380759
0.288069 0.5 -0.6 0.00376432
0.288069 0.5 0.6 0.00376404
0.574156 0.5 -0.3375 0.0037975
0.574156 0.5 0.3375 0.00379622
0.411736 0.5 0.525 0.003774
0.411736 0.5 -0.525 0.0037748
0 0.5 0.66882 0.00375
0 0.5 -0.66882 0.00375
0.0124871 0.5 -0.66882 0.00375051
0.0124871 0.5 0.66882 0.00375053
0.67013 0.5 -0.0375 0.00381952
0.67013 0.5 0.0375 0.00381938
0.219992 0.5 -0.6375 0.00375983
0.219992 0.5 0.6375 0.0037598
0 0.5 -0.675 0.00375
0 0.5 0.675 0.00375
0.467897 0.5 -0.4875 0.00378084
0.467897 0.5 0.4875 0.00377978
0.67013 0.5 -0.1125 0.00381949
0.67013 0.5 0.1125 0.00381902
0 0.5 -0.68118 0.00375
0 0.5 0.68118 0.00375
0.0124871 0.5 -0.68118 0.00375054
0.0124871 0.5 0.68118 0.00375055
0.523432 0.5 -0.45 0.00378919
0.523432 0.5 0.45 0.00378807
0.151149 0.5 -0.675 0.00375672
0.151149 0.5 0.675 0.00375678
0.624316 0.5 -0.3 0.00380832
0.624316 0.5 0.3 0.00380719
0.67013 0.5 -0.1875 0.00381929
0.67013 0.5 0.1875 0.0038185
0.574156 0.5 0.4125 0.00379613
0.574156 0.5 -0.4125 0.00379736
0.708171 0.5 3.5345e-17 0.00383056
0.0757758 0.5 -0.7125 0.00375326
0.0757758 0.5 0.7125 0.00375336
0.715434 0.5 0.0736267 0.00383218
0.715434 0.5 -0.075 0.00383268
0.67013 0.5 -0.2625 0.0038189
0.67013 0.5 0.2625 0.00381788
0.350249 0.5 -0.6375 0.00376898
0.350249 0.5 0.6375 0.00376857
0.411736 0.5 0.6 0.00377446
0.411736 0.5 -0.6 0.00377508
0.624316 0.5 -0.375 0.0038079
0.624316 0.5 0.375 0.00380681
0.715434 0.5 -0.15 0.00383237
0.715434 0.5 0.15 0.00383191
0.467897 0.5 -0.5625 0.00378101
0.467897 0.5 0.5625 0.00378013
0.288069 0.5 -0.675 0.00376473
0.288069 0.5 0.675 0.00376458
0.523432 0.5 -0.525 0.0037891
0.523432 0.5 0.525 0.00378816
0 0.5 0.74382 0.00375
0 0.5 -0.74382 0.00375
0.0124871 0.5 -0.74382 0.00375054
0.0124871 0.5 0.74382 0.00375055
0.219992 0.5 0.7125 0.00376029
0.219992 0.5 -0.7125 0.00376023
0.715434 0.5 -0.225 0.0038318
0.715434 0.5 0.225 0.00383114
0 0.5 -0.75 0.00375
0 0.5 0.75 0.00375
0.67013 0.5 -0.3375 0.00381827
0.67013 0.5 0.3375 0.00381722
0.574156 0.5 -0.4875 0.00379706
0.574156 0.5 0.4875 0.003796
0 0.5 0.75618 0.00375
0 0.5 -0.75618 0.00375
0.0124871 0.5 -0.75618 0.00375056
0.0124871 0.5 0.75618 0.00375057
0.756814 0.5 0.0375 0.00384533
0.756814 0.5 -0.0375 0.00384538
0.151149 0.5 0.75 0.00375707
0.151149 0.5 -0.75 0.00375696
0.756814 0.5 -0.1125 0.00384508
0.756814 0.5 0.1125 0.00384486
0.624316 0.5 -0.45 0.00380729
0.624316 0.5 0.45 0.00380637
0.715434 0.5 -0.3 0.00383093
0.715434 0.5 0.3 0.00383021
0.756814 0.5 -0.1875 0.00384442
0.756814 0.5 0.1875 0.00384403
0.67013 0.5 -0.4125 0.0038174
0.67013 0.5 0.4125 0.00381655
0.411736 0.5 -0.675 0.00377524
0.411736 0.5 0.675 0.00377486
0.467897 0.5 -0.6375 0.00378104
0.467897 0.5 0.6375 0.00378042
0.0757758 0.5 -0.7875 0.00375337
0.0757758 0.5 0.7875 0.00375349
0.350249 0.5 -0.7125 0.00376929
0.350249 0.5 0.7125 0.00376908
0.523432 0.5 0.6 0.00378819
0.523432 0.5 -0.6 0.00378886
0.797732 0.5 1.60462e-17 0.00386011
0.756814 0.5 -0.2625 0.0038434
0.756814 0.5 0.2625 0.00384293
0.797732 0.5 0.0736267 0.00385973
0.797732 0.5 -0.075 0.00385984
0.288069 0.5 0.75 0.00376503
0.288069 0.5 -0.75 0.00376503
0.574156 0.5 -0.5625 0.00379658
0.574156 0.5 0.5625 0.00379581
0.715434 0.5 -0.375 0.00382975
0.715434 0.5 0.375 0.00382919
0.797732 0.5 -0.15 0.00385909
0.797732 0.5 0.15 0.00385909
0.624316 0.5 -0.525 0.00380646
0.624316 0.5 0.525 0.00380584
0.219992 0.5 -0.7875 0.00376053
0.219992 0.5 0.7875 0.00376069
0 0.5 -0.81882 0.00375
0 0.5 0.81882 0.00375
0.0124871 0.5 -0.81882 0.00375056
0.0124871 0.5 0.81882 0.00375057
0 0.5 -0.825 0.00375
0 0.5 0.825 0.00375
0.756814 0.5 -0.3375 0.00384201
0.756814 0.5 0.3375 0.00384163
0.67013 0.5 0.4875 0.00381574
0.67013 0.5 -0.4875 0.00381628
0.797732 0.5 0.225 0.00385788
0.797732 0.5 -0.225 0.00385788
0 0.5 -0.83118 0.00375
0 0.5 0.83118 0.00375
0.0124871 0.5 -0.83118 0.00375057
0.0124871 0.5 0.83118 0.00375059
0.835107 0.5 -0.0375 0.00387417
0.835107 0.5 0.0375 0.00387428
0.151149 0.5 -0.825 0.00375714
0.151149 0.5 0.825 0.00375731
0.835107 0.5 0.1125 0.0038737
0.835107 0.5 -0.1125 0.00387347
0.715434 0.5 -0.45 0.00382826
0.715434 0.5 0.45 0.00382804
0.797732 0.5 -0.3 0.00385624
0.797732 0.5 0.3 0.00385633
0.467897 0.5 0.7125 0.00378064
0.467897 0.5 -0.7125 0.00378093
0.523432 0.5 -0.675 0.00378846
0.523432 0.5 0.675 0.00378815
0.411736 0.5 0.75 0.00377517
0.411736 0.5 -0.75 0.00377527
0.835107 0.5 -0.1875 0.00387217
0.835107 0.5 0.1875 0.0038725
0.574156 0.5 0.6375 0.00379554
0.574156 0.5 -0.6375 0.00379593
0.350249 0.5 -0.7875 0.00376948
0.350249 0.5 0.7875 0.0037695
0.756814 0.5 -0.4125 0.00384022
0.756814 0.5 0.4125 0.00384019
0.0757758 0.5 -0.8625 0.00375344
0.0757758 0.5 0.8625 0.00375357
0.624316 0.5 -0.6 0.00380542
0.624316 0.5 0.6 0.00380521
0.872064 0.5 4.81386e-17 0.00388989
0.870122 0.5 0.075 0.00388874
0.288069 0.5 -0.825 0.00376522
0.288069 0.5 0.825 0.00376539
0.67013 0.5 -0.5625 0.00381492
0.67013 0.5 0.5625 0.00381479
0.872064 0.5 -0.075 0.00388938
0.835107 0.5 -0.2625 0.00387032
0.835107 0.5 0.2625 0.00387081
0.797732 0.5 -0.375 0.00385415
0.797732 0.5 0.375 0.00385453
0.872064 0.5 0.14794 0.00388883
0.872064 0.5 -0.15 0.00388821
0.715434 0.5 0.525 0.00382673
0.715434 0.5 -0.525 0.00382647
0.219992 0.5 -0.8625 0.00376074
0.219992 0.5 0.8625 0.003761
0 0.5 -0.89382 0.00375
0 0.5 0.89382 0.00375
0.0124871 0.5 -0.89382 0.00375057
0.0124871 0.5 0.89382 0.00375059
0 0.5 -0.9 0.00375
0 0.5 0.9 0.00375
0.756814 0.5 -0.4875 0.00383807
0.756814 0.5 0.4875 0.00383857
0.872064 0.5 -0.225 0.0038864
0.872064 0.5 0.225 0.00388731
0.835107 0.5 0.3375 0.00386875
0.835107 0.5 -0.3375 0.00386807
0 0.5 -0.90618 0.00375
0 0.5 0.90618 0.00375
0.0124871 0.5 -0.90618 0.00375057
0.0124871 0.5 0.90618 0.0037506
0.905821 0.5 0.0375 0.00390509
0.905821 0.5 -0.0375 0.00390482
0.151149 0.5 -0.9 0.00375725
0.151149 0.5 0.9 0.00375748
0.905821 0.5 -0.1125 0.00390384
0.905821 0.5 0.1125 0.00390458
0.523432 0.5 -0.75 0.0037879
0.523432 0.5 0.75 0.00378802
0.574156 0.5 -0.7125 0.0037951
0.574156 0.5 0.7125 0.00379517
0.797732 0.5 -0.45 0.00385159
0.797732 0.5 0.45 0.00385255
0.467897 0.5 0.7875 0.00378075
0.467897 0.5 -0.7875 0.00378067
0.624316 0.5 -0.675 0.00380419
0.624316 0.5 0.675 0.00380448
0.411736 0.5 -0.825 0.00377516
0.411736 0.5 0.825 0.00377536
0.872064 0.5 -0.3 0.00388392
0.872064 0.5 0.3 0.00388521
0.67013 0.5 0.6375 0.00381373
0.67013 0.5 -0.6375 0.00381332
0.905821 0.5 -0.1875 0.00390216
0.905821 0.5 0.1875 0.00390331
0.350249 0.5 -0.8625 0.00376954
0.350249 0.5 0.8625 0.00376979
0.835107 0.5 -0.4125 0.00386518
0.835107 0.5 0.4125 0.00386641
0.715434 0.5 -0.6 0.00382441
0.715434 0.5 0.6 0.00382524
0.939201 0.5 3.31766e-17 0.00392045
0.0757758 0.5 -0.9375 0.00375348
0.0757758 0.5 0.9375 0.00375363
0.939112 0.5 0.075 0.00392036
0.939201 0.5 -0.075 0.0039197
0.756814 0.5 -0.5625 0.0038356
0.756814 0.5 0.5625 0.00383672
0.905821 0.5 0.2625 0.00390139
0.905821 0.5 -0.2625 0.00389976
0.288069 0.5 -0.9 0.00376529
0.288069 0.5 0.9 0.00376563
0.872064 0.5 -0.375 0.00388077
0.872064 0.5 0.375 0.00388258
0.939201 0.5 0.148627 0.00391941
0.939201 0.5 -0.15 0.00391819
0.797732 0.5 -0.525 0.00384865
0.797732 0.5 0.525 0.00385032
0.219992 0.5 -0.9375 0.00376085
0.219992 0.5 0.9375 0.00376121
0.939201 0.5 -0.225 0.0039159
0.939201 0.5 0.225 0.0039179
0.905821 0.5 -0.3375 0.00389642
0.905821 0.5 0.3375 0.00389869
0.835107 0.5 -0.4875 0.00386182
0.835107 0.5 0.4875 0.0038639
0 0.5 -0.96882 0.00375
0 0.5 0.96882 0.00375
0.0124871 0.5 -0.96882 0.00375057
0.0124871 0.5 0.96882 0.0037506
0.96969 0.5 -0.0375 0.00393517
0.96969 0.5 0.0375 0.00393564
0.574156 0.5 0.7875 0.0037947
0.574156 0.5 -0.7875 0.0037941
0 0.5 -0.975 0.00375
0 0.5 0.975 0.00375
0.624316 0.5 -0.75 0.00380277
0.624316 0.5 0.75 0.00380364
0.96969 0.5 -0.1125 0.0039339
0.96969 0.5 0.1125 0.00393522
0.523432 0.5 -0.825 0.00378718
0.523432 0.5 0.825 0.00378777
0.67013 0.5 -0.7125 0.00381151
0.67013 0.5 0.7125 0.00381254
0 0.5 -0.98118 0.00375
0 0.5 0.98118 0.00375
0.467897 0.5 -0.8625 0.00378026
0.467897 0.5 0.8625 0.00378074
0.0124871 0.5 -0.98118 0.00375058
0.0124871 0.5 0.98118 0.0037506
0.872064 0.5 0.45 0.00387961
0.872064 0.5 -0.45 0.00387703
0.715434 0.5 -0.675 0.00382211
0.715434 0.5 0.675 0.0038236
0.939201 0.5 0.3 0.00391548
0.939201 0.5 -0.3 0.00391271
0.151149 0.5 -0.975 0.0037573
0.151149 0.5 0.975 0.00375758
0.96969 0.5 -0.1875 0.00393181
0.96969 0.5 0.1875 0.00393394
0.756814 0.5 0.6375 0.00383467
0.756814 0.5 -0.6375 0.00383284
0.411736 0.5 -0.9 0.0037749
0.411736 0.5 0.9 0.00377543
0.905821 0.5 -0.4125 0.00389233
0.905821 0.5 0.4125 0.0038953
0.995005 0.5 0.0749309 0.00394691
0.797732 0.5 -0.6 0.00384536
0.797732 0.5 0.6 0.00384781
1.00005 0.5 3.26706e-18 0.00394938
0.350249 0.5 0.9375 0.00376996
0.350249 0.5 -0.9375 0.00376946
1.00005 0.5 -0.0749309 0.00394841
0.96969 0.5 -0.2625 0.00392886
0.96969 0.5 0.2625 0.00393188
0.835107 0.5 -0.5625 0.00385807
0.835107 0.5 0.5625 0.003861
1.00005 0.5 -0.149862 0.0039466
0.939201 0.5 -0.375 0.00390857
0.939201 0.5 0.375 0.00391222
1.00029 0.5 0.148988 0.00394837
0.0757758 0.5 -1.0125 0.0037535
0.0757758 0.5 1.0125 0.00375366
0.288069 0.5 -0.975 0.00376524
0.288069 0.5 0.975 0.00376576
0.872064 0.5 -0.525 0.0038728
0.872064 0.5 0.525 0.00387635
1.00005 0.5 0.224793 0.003947
1.00005 0.5 -0.224793 0.00394393
0.96969 0.5 0.3375 0.00392891
0.96969 0.5 -0.3375 0.00392482
1.02709 0.5 0.0368226 0.003965
1.02709 0.5 -0.0368226 0.00396437
0.905821 0.5 0.4875 0.00389173
0.905821 0.5 -0.4875 0.00388774
1.02709 0.5 -0.110468 0.00396286
1.02709 0.5 0.110468 0.00396626
0.67013 0.5 -0.7875 0.00380953
0.67013 0.5 0.7875 0.00381124
0.624316 0.5 -0.825 0.00380119
0.624316 0.5 0.825 0.00380268
0.219992 0.5 -1.0125 0.00376087
0.219992 0.5 1.0125 0.00376132
0.574156 0.5 -0.8625 0.00379294
0.574156 0.5 0.8625 0.0037941
0.715434 0.5 -0.75 0.0038196
0.715434 0.5 0.75 0.00382182
0.756814 0.5 -0.7125 0.00382985
0.756814 0.5 0.7125 0.00383246
0.523432 0.5 0.9 0.00378738
0.523432 0.5 -0.9 0.0037863
0.939201 0.5 0.45 0.00390827
0.939201 0.5 -0.45 0.00390351
1.04168 0.5 0 0.00397256
1.02709 0.5 -0.184113 0.00396049
1.02709 0.5 0.184113 0.00396352
0 0.5 1.04382 0.00375
0 0.5 -1.04382 0.00375
0.0124871 0.5 -1.04382 0.00375058
0.0124871 0.5 1.04382 0.0037506
1.00005 0.5 -0.299723 0.00394025
1.00005 0.5 0.299723 0.00394448
1.04168 0.5 -0.0729162 0.00397143
1.04168 0.5 0.0729162 0.00397279
0.797732 0.5 -0.675 0.00384179
0.797732 0.5 0.675 0.00384508
0.467897 0.5 -0.9375 0.00377969
0.467897 0.5 0.9375 0.00378058
0 0.5 -1.05 0.00375
0 0.5 1.05 0.00375
0.835107 0.5 0.6375 0.0038578
0.835107 0.5 -0.6375 0.00385398
1.04168 0.5 -0.145832 0.00396942
1.04168 0.5 0.145832 0.00397208
0.96969 0.5 -0.4125 0.00391975
0.96969 0.5 0.4125 0.00392493
0 0.5 -1.05618 0.00375
0 0.5 1.05618 0.00375
0.0124871 0.5 -1.05618 0.00375058
0.0124871 0.5 1.05618 0.0037506
1.05694 0.5 -0.0360765 0.00398014
1.05694 0.5 0.0360765 0.00398087
0.411736 0.5 0.975 0.00377535
0.411736 0.5 -0.975 0.00377449
0.872064 0.5 -0.6 0.0038681
0.872064 0.5 0.6 0.00387271
1.02709 0.5 -0.257758 0.0039572
1.02709 0.5 0.257758 0.00396146
0.151149 0.5 -1.05 0.00375728
0.151149 0.5 1.05 0.00375762
1.05694 0.5 -0.108229 0.00397849
1.05694 0.5 0.108229 0.00398231
1.04168 0.5 -0.218749 0.00396652
1.04168 0.5 0.218749 0.00397046
0.905821 0.5 -0.5625 0.00388256
0.905821 0.5 0.5625 0.00388769
1.00005 0.5 -0.374654 0.00393548
1.00005 0.5 0.374654 0.00394098
0.350249 0.5 -1.0125 0.00376924
0.350249 0.5 1.0125 0.00376998
1.05694 0.5 -0.180382 0.00397598
1.05694 0.5 0.180382 0.00397954
1.07319 0.5 0.0709442 0.00399035
0.939201 0.5 0.525 0.00390378
0.939201 0.5 -0.525 0.00389773
1.02709 0.5 -0.331404 0.0039528
1.02709 0.5 0.331404 0.00395849
1.08112 0.5 -3.98986e-18 0.00399447
1.04168 0.5 -0.291665 0.0039626
1.04168 0.5 0.291665 0.00396797
1.08112 0.5 -0.0709442 0.00399318
0.96969 0.5 -0.4875 0.0039133
0.96969 0.5 0.4875 0.00392012
1.05694 0.5 -0.252535 0.00397253
1.05694 0.5 0.252535 0.00397751
0.288069 0.5 -1.05 0.00376508
0.288069 0.5 1.05 0.00376576
0.0757758 0.5 -1.0875 0.00375349
0.0757758 0.5 1.0875 0.00375366
1.08112 0.5 -0.141888 0.00399097
1.08145 0.5 0.140165 0.0039937
0.715434 0.5 -0.825 0.00381692
0.715434 0.5 0.825 0.00381993
0.756814 0.5 -0.7875 0.00382666
0.756814 0.5 0.7875 0.00383011
0.67013 0.5 -0.8625 0.00380739
0.67013 0.5 0.8625 0.00380982
0.797732 0.5 0.75 0.00384219
0.797732 0.5 -0.75 0.003838
0.624316 0.5 -0.9 0.00379945
0.624316 0.5 0.9 0.00380159
1.00005 0.5 -0.449585 0.00392942
1.00005 0.5 0.449585 0.0039365
0.835107 0.5 -0.7125 0.0038496
0.835107 0.5 0.7125 0.0038544
0.574156 0.5 -0.9375 0.00379163
0.574156 0.5 0.9375 0.00379337
1.10076 0.5 0.034981 0.00400643
1.10076 0.5 -0.034981 0.00400556
1.08112 0.5 -0.212833 0.00398786
1.08112 0.5 0.212833 0.00399267
0.872064 0.5 -0.675 0.00386304
0.872064 0.5 0.675 0.00386876
1.04168 0.5 -0.364581 0.00395758
1.04168 0.5 0.364581 0.0039645
1.02709 0.5 0.405049 0.00395448
1.02709 0.5 -0.405049 0.00394728
1.05694 0.5 -0.324688 0.00396796
1.05694 0.5 0.324688 0.00397458
1.10076 0.5 -0.104943 0.00400369
1.10076 0.5 0.104943 0.00400639
0.523432 0.5 -0.975 0.00378528
0.523432 0.5 0.975 0.00378685
0.905821 0.5 -0.6375 0.00387684
0.905821 0.5 0.6375 0.0038833
0.219992 0.5 -1.0875 0.00376079
0.219992 0.5 1.0875 0.00376133
1.11376 0.5 0 0.00401387
0.939201 0.5 -0.6 0.00389152
0.939201 0.5 0.6 0.00389877
1.10076 0.5 -0.174905 0.00400094
1.10076 0.5 0.174905 0.00400534
0.467897 0.5 -1.0125 0.00377897
0.467897 0.5 1.0125 0.00378027
1.11376 0.5 -0.0693118 0.00401244
1.11376 0.5 0.0693118 0.00401433
1.08112 0.5 -0.283777 0.00398371
1.08112 0.5 0.283777 0.00399021
0 0.5 1.11882 0.00375
0 0.5 -1.11882 0.00375
0.0124871 0.5 -1.11882 0.00375058
0.0124871 0.5 1.11882 0.0037506
0.96969 0.5 -0.5625 0.00390645
0.96969 0.5 0.5625 0.00391461
1.11376 0.5 -0.138624 0.00401005
1.11376 0.5 0.138624 0.00401373
0 0.5 -1.125 0.00375
0 0.5 1.125 0.00375
1.10076 0.5 0.244867 0.00400335
1.10076 0.5 -0.244867 0.00399724
0.411736 0.5 -1.05 0.00377395
0.411736 0.5 1.05 0.00377514
1.05694 0.5 -0.396841 0.0039623
1.05694 0.5 0.396841 0.00397061
1.00005 0.5 -0.524516 0.00392242
1.00005 0.5 0.524516 0.00393116
1.04168 0.5 -0.437497 0.00395121
1.04168 0.5 0.437497 0.00395998
0 0.5 -1.13118 0.00375
0 0.5 1.13118 0.00375
0.0124871 0.5 -1.13118 0.00375057
0.0124871 0.5 1.13118 0.0037506
1.11376 0.5 -0.207935 0.00400674
1.11376 0.5 0.207935 0.00401232
1.02709 0.5 -0.478694 0.00394029
1.02709 0.5 0.478694 0.00394946
0.151149 0.5 -1.125 0.0037572
0.151149 0.5 1.125 0.00375758
1.08112 0.5 0.354721 0.00398678
1.08112 0.5 -0.354721 0.00397845
1.13882 0.5 0.0340295 0.00402991
1.13882 0.5 -0.0340295 0.00402889
0.350249 0.5 -1.0875 0.00376889
0.350249 0.5 1.0875 0.00376988
1.13882 0.5 -0.102088 0.00402681
1.13882 0.5 0.102088 0.00403089
1.10076 0.5 0.314829 0.00400045
1.10076 0.5 -0.314829 0.00399241
0.756814 0.5 -0.8625 0.00382332
0.756814 0.5 0.8625 0.00382765
0.797732 0.5 -0.825 0.00383403
0.797732 0.5 0.825 0.00383917
1.11376 0.5 -0.277247 0.00400238
1.11376 0.5 0.277247 0.00400988
0.835107 0.5 0.7875 0.00385085
0.835107 0.5 -0.7875 0.00384505
0.715434 0.5 -0.9 0.0038141
0.715434 0.5 0.9 0.00381791
0.872064 0.5 -0.75 0.00385776
0.872064 0.5 0.75 0.00386458
1.13882 0.5 0.170147 0.00402904
1.13882 0.5 -0.170147 0.00402381
0.67013 0.5 -0.9375 0.00380511
0.67013 0.5 0.9375 0.00380827
0.905821 0.5 -0.7125 0.00387089
0.905821 0.5 0.7125 0.00387856
1.05694 0.5 -0.468994 0.00395506
1.05694 0.5 0.468994 0.00396558
0.939201 0.5 -0.675 0.00388493
0.939201 0.5 0.675 0.00389345
0.624316 0.5 -0.975 0.00379757
0.624316 0.5 0.975 0.00380037
1.04168 0.5 -0.510414 0.00394381
1.04168 0.5 0.510414 0.00395451
0.96969 0.5 -0.6375 0.00389942
0.96969 0.5 0.6375 0.00390857
0.288069 0.5 -1.125 0.0037648
0.288069 0.5 1.125 0.00376566
1.16179 0.5 0 0.00404471
1.08112 0.5 -0.425665 0.00397185
1.08112 0.5 0.425665 0.0039823
1.13882 0.5 0.238206 0.00402709
1.13882 0.5 -0.238206 0.00401984
1.16179 0.5 -0.0669104 0.00404303
1.16179 0.5 0.0669104 0.00404782
0.574156 0.5 1.0125 0.00379248
0.574156 0.5 -1.0125 0.00379016
0.0757758 0.5 1.1625 0.00375361
0.0757758 0.5 -1.1625 0.00375343
1.00005 0.5 -0.599447 0.00391502
1.00005 0.5 0.599447 0.00392498
1.10076 0.5 -0.384791 0.00398651
1.10076 0.5 0.384791 0.00399653
1.02709 0.5 -0.552339 0.00393276
1.02709 0.5 0.552339 0.00394355
1.11376 0.5 0.346559 0.00400648
1.11376 0.5 -0.346559 0.00399693
1.16179 0.5 -0.133821 0.00404033
1.16179 0.5 0.133821 0.00404535
0.523432 0.5 -1.05 0.00378411
0.523432 0.5 1.05 0.00378618
1.17463 0.5 -0.0331343 0.00405202
1.17463 0.5 0.0331343 0.00405319
1.17463 0.5 -0.099403 0.00404971
1.17463 0.5 0.099403 0.0040534
1.16179 0.5 -0.200731 0.00403667
1.16179 0.5 0.200731 0.00404359
1.13882 0.5 -0.306265 0.00401475
1.13882 0.5 0.306265 0.0040242
0.219992 0.5 -1.1625 0.0037606
0.219992 0.5 1.1625 0.00376123
0.467897 0.5 -1.0875 0.00377812
0.467897 0.5 1.0875 0.00377982
1.17463 0.5 -0.165672 0.00404647
1.17463 0.5 0.165672 0.00405253
1.05694 0.5 0.541147 0.00395967
1.05694 0.5 -0.541147 0.00394731
1.18772 0.5 0 0.00406162
1.11376 0.5 -0.415871 0.00399013
1.11376 0.5 0.415871 0.00400203
1.18772 0.5 -0.065614 0.0040598
1.18772 0.5 0.065614 0.00406238
1.08112 0.5 -0.49661 0.00396418
1.08112 0.5 0.49661 0.00397684
1.10076 0.5 -0.454752 0.00397899
1.10076 0.5 0.454752 0.00399154
1.18534 0.5 0.118202 0.00406208
1.16179 0.5 -0.267642 0.00403195
1.16179 0.5 0.267642 0.00404117
0 0.5 -1.19382 0.00375
0 0.5 1.19382 0.00375
1.04168 0.5 -0.58333 0.0039359
1.04168 0.5 0.58333 0.003948
0.0124871 0.5 -1.19382 0.00375057
0.0124871 0.5 1.19382 0.0037506
1.18772 0.5 -0.131228 0.00405693
1.17463 0.5 -0.23194 0.00404224
1.17463 0.5 0.23194 0.00405061
0.411736 0.5 -1.125 0.00377328
0.411736 0.5 1.125 0.0037748
1.13882 0.5 -0.374324 0.00400855
1.13882 0.5 0.374324 0.0040203
0 0.5 -1.2 0.00375
0 0.5 1.2 0.00375
0.905821 0.5 -0.7875 0.00386471
0.905821 0.5 0.7875 0.00387356
0.872064 0.5 -0.825 0.0038523
0.872064 0.5 0.825 0.00386022
0.835107 0.5 0.8625 0.00384718
0.835107 0.5 -0.8625 0.00384033
0.939201 0.5 -0.75 0.00387804
0.939201 0.5 0.75 0.00388792
0.797732 0.5 -0.9 0.00382993
0.797732 0.5 0.9 0.00383603
1.02709 0.5 -0.625985 0.00392466
1.02709 0.5 0.625985 0.00393653
0.96969 0.5 -0.7125 0.00389181
0.96969 0.5 0.7125 0.00390252
1.18772 0.5 -0.196842 0.00405308
1.18772 0.5 0.196842 0.0040607
0.756814 0.5 -0.9375 0.00381984
0.756814 0.5 0.9375 0.00382508
0 0.5 -1.20618 0.00375
0 0.5 1.20618 0.00375
1.00005 0.5 -0.674378 0.00390703
1.00005 0.5 0.674378 0.00391834
0.0124871 0.5 -1.20618 0.00375056
0.0124871 0.5 1.20618 0.00375059
1.16179 0.5 -0.334552 0.00402613
1.16179 0.5 0.334552 0.00403778
0.715434 0.5 -0.975 0.00381115
0.715434 0.5 0.975 0.00381578
0.151149 0.5 -1.2 0.00375705
0.151149 0.5 1.2 0.00375748
1.20942 0.5 -0.0322645 0.00407615
1.20942 0.5 0.0322645 0.0040778
1.17463 0.5 -0.298209 0.00403686
1.17463 0.5 0.298209 0.0040477
1.20942 0.5 -0.0967935 0.0040736
1.20942 0.5 0.0967935 0.00407783
0.350249 0.5 -1.1625 0.00376842
0.350249 0.5 1.1625 0.00376966
0.67013 0.5 1.0125 0.00380659
0.67013 0.5 -1.0125 0.0038027
1.11376 0.5 -0.485183 0.00398224
1.11376 0.5 0.485183 0.00399658
1.18772 0.5 -0.262456 0.00404816
1.18772 0.5 0.262456 0.00405829
1.10076 0.5 0.524714 0.00398563
1.10076 0.5 -0.524714 0.00397092
1.20942 0.5 -0.161322 0.00407008
1.20942 0.5 0.161322 0.00407706
1.08112 0.5 0.567554 0.00397031
1.08112 0.5 -0.567554 0.00395598
0.624316 0.5 -1.05 0.00379557
0.624316 0.5 1.05 0.00379901
1.13882 0.5 -0.442383 0.00400082
1.13882 0.5 0.442383 0.00401534
1.05694 0.5 0.6133 0.00395254
1.05694 0.5 -0.6133 0.003939
1.16179 0.5 -0.401463 0.00401896
1.16179 0.5 0.401463 0.00403334
0.574156 0.5 1.0875 0.00379146
0.574156 0.5 -1.0875 0.00378859
1.17463 0.5 -0.364478 0.00403041
1.17463 0.5 0.364478 0.0040438
1.20942 0.5 0.225851 0.00407516
1.20942 0.5 -0.225851 0.00406554
1.23036 0.5 1.15648e-18 0.00409272
1.2294 0.5 0.0634819 0.0040933
1.04168 0.5 -0.656246 0.00392723
1.04168 0.5 0.656246 0.00394072
1.23036 0.5 -0.0634819 0.00409062
1.18772 0.5 0.32807 0.00405487
1.18772 0.5 -0.32807 0.00404212
0.288069 0.5 1.2 0.00376544
0.288069 0.5 -1.2 0.00376441
1.23036 0.5 -0.126964 0.00408739
1.23036 0.5 0.126964 0.00409353
0.0757758 0.5 -1.2375 0.00375336
0.0757758 0.5 1.2375 0.00375354
0.523432 0.5 -1.125 0.00378284
0.523432 0.5 1.125 0.00378538
1.02709 0.5 0.69963 0.00392926
1.02709 0.5 -0.69963 0.00391568
1.24275 0.5 -0.0314313 0.00410087
1.24275 0.5 0.0314313 0.0041024
1.20942 0.5 -0.29038 0.00405984
1.20942 0.5 0.29038 0.00407223
1.11376 0.5 -0.554494 0.00397381
1.11376 0.5 0.554494 0.00399007
1.23036 0.5 -0.190446 0.00408314
1.23036 0.5 0.190446 0.00409225
1.24275 0.5 -0.0942939 0.00409807
1.24275 0.5 0.0942939 0.00410286
1.13882 0.5 -0.510442 0.00399245
1.13882 0.5 0.510442 0.00400941
0.96969 0.5 0.7875 0.00389624
0.96969 0.5 -0.7875 0.00388405
1.00005 0.5 0.749309 0.00391153
1.00005 0.5 -0.749309 0.00389857
0.939201 0.5 -0.825 0.003871
0.939201 0.5 0.825 0.00388217
0.905821 0.5 -0.8625 0.0038584
0.905821 0.5 0.8625 0.00386842
1.17463 0.5 0.430746 0.00403882
1.17463 0.5 -0.430746 0.00402237
1.10076 0.5 0.594676 0.00397851
1.10076 0.5 -0.594676 0.00396232
1.18772 0.5 -0.393684 0.00403475
1.18772 0.5 0.393684 0.00405041
1.24275 0.5 -0.157157 0.00409424
1.24275 0.5 0.157157 0.00410218
1.16179 0.5 -0.468373 0.00401068
1.16179 0.5 0.468373 0.00402788
0.467897 0.5 -1.1625 0.00377716
0.467897 0.5 1.1625 0.00377926
0.872064 0.5 -0.9 0.00384674
0.872064 0.5 0.9 0.00385574
1.25401 0.5 0 0.00410991
0.835107 0.5 -0.9375 0.00383553
0.835107 0.5 0.9375 0.0038434
1.25401 0.5 0.0622994 0.00411114
1.25401 0.5 -0.0622994 0.00410766
1.08112 0.5 0.638498 0.00396288
1.08112 0.5 -0.638498 0.00394705
1.23036 0.5 -0.253928 0.00407779
1.23036 0.5 0.253928 0.00408984
0.219992 0.5 -1.2375 0.00376032
0.219992 0.5 1.2375 0.00376103
1.2531 0.5 0.121964 0.0041109
1.05694 0.5 -0.685453 0.00392974
1.05694 0.5 0.685453 0.00394498
0.797732 0.5 -0.975 0.00382575
0.797732 0.5 0.975 0.0038328
1.25401 0.5 -0.124599 0.00410424
1.20942 0.5 -0.354909 0.00405306
1.20942 0.5 0.354909 0.00406829
1.24275 0.5 -0.220019 0.00408937
1.24275 0.5 0.220019 0.00410032
0.756814 0.5 -1.0125 0.00381628
0.756814 0.5 1.0125 0.00382239
1.25401 0.5 -0.186898 0.00409976
1.25401 0.5 0.186898 0.00410966
0.411736 0.5 -1.2 0.0037725
0.411736 0.5 1.2 0.00377435
0 0.5 -1.26882 0.00375
0 0.5 1.26882 0.00375
0.0124871 0.5 -1.26882 0.00375056
0.0124871 0.5 1.26882 0.00375059
0.715434 0.5 -1.05 0.00380811
0.715434 0.5 1.05 0.00381352
1.23036 0.5 -0.317409 0.0040713
1.23036 0.5 0.317409 0.00408637
1.04168 0.5 -0.729162 0.00391786
1.04168 0.5 0.729162 0.00393316
1.18772 0.5 -0.459298 0.00402624
1.18772 0.5 0.459298 0.00404491
1.24275 0.5 0.282882 0.00409734
1.24275 0.5 -0.282882 0.00408331
0 0.5 -1.275 0.00375
0 0.5 1.275 0.00375
1.27472 0.5 -0.0306319 0.00412637
1.27472 0.5 0.0306319 0.00412811
1.17463 0.5 -0.497015 0.00401366
1.17463 0.5 0.497015 0.00403286
1.11376 0.5 0.623806 0.00398259
1.11376 0.5 -0.623806 0.00396468
1.13882 0.5 -0.578501 0.00398357
1.13882 0.5 0.578501 0.00400235
0.67013 0.5 -1.0875 0.00380018
0.67013 0.5 1.0875 0.00380479
1.27472 0.5 0.0918957 0.00412555
1.27472 0.5 -0.0918957 0.00412331
1.25401 0.5 -0.249198 0.00409417
1.25401 0.5 0.249198 0.00410723
1.16179 0.5 -0.535283 0.00400185
1.16179 0.5 0.535283 0.00402138
1.20942 0.5 0.419438 0.00406326
1.20942 0.5 -0.419438 0.0040447
0 0.5 -1.28118 0.00375
0 0.5 1.28118 0.00375
0.0124871 0.5 -1.28118 0.00375054
0.0124871 0.5 1.28118 0.00375057
1.27472 0.5 -0.15316 0.00411913
1.27472 0.5 0.15316 0.00412812
0.151149 0.5 -1.275 0.00375684
0.151149 0.5 1.275 0.00375731
1.02709 0.5 -0.773275 0.00390639