# nutMean  POINT_DATA 63889
# x  y  z  nutMean
0 0.5 3.39582e-17 0.015676
0 0.5 -0.00617965 0.0156833
0 0.5 0.00617965 0.0156755
0.0124871 0.5 -0.00617965 0.0167668
0.0124871 0.5 0.00617965 0.0167659
0 0.5 -0.0688203 0.0156903
0 0.5 0.0688203 0.0155675
0.0124871 0.5 -0.0688203 0.0167739
0.0124871 0.5 0.0688203 0.0166579
0 0.5 -0.075 0.0156846
0 0.5 0.075 0.0155466
0 0.5 -0.0811797 0.0156856
0 0.5 0.0811797 0.0155322
0.0124871 0.5 -0.0811797 0.0167941
0.0124871 0.5 0.0811797 0.0166242
0.0757758 0.5 -0.0375 0.0222439
0.0757758 0.5 0.0375 0.0222408
0.0757758 0.5 -0.1125 0.022364
0.0757758 0.5 0.1125 0.0220368
0 0.5 -0.14382 0.0155401
0 0.5 0.14382 0.0152692
0.0124871 0.5 -0.14382 0.0166486
0.0124871 0.5 0.14382 0.0163612
0 0.5 -0.15 0.0155103
0 0.5 0.15 0.0152315
0.151149 0.5 -0.00137326 0.019704
0 0.5 -0.15618 0.0154868
0 0.5 0.15618 0.0151999
0.0124871 0.5 -0.15618 0.0165663
0.0124871 0.5 0.15618 0.0162616
0.151149 0.5 -0.075 0.0196908
0.151149 0.5 0.075 0.0196186
0.0757758 0.5 -0.1875 0.0218713
0.0757758 0.5 0.1875 0.02144
0.151149 0.5 -0.15 0.0195276
0.151149 0.5 0.15 0.019361
0 0.5 -0.21882 0.0151688
0 0.5 0.21882 0.0148112
0.0124871 0.5 -0.21882 0.0162482
0.0124871 0.5 0.21882 0.0158729
0.219992 0.5 -0.0375 0.0172954
0.219992 0.5 0.0375 0.0173077
0 0.5 -0.225 0.0151291
0 0.5 0.225 0.0147657
0 0.5 -0.23118 0.0150953
0 0.5 0.23118 0.0147257
0.0124871 0.5 -0.23118 0.0161375
0.0124871 0.5 0.23118 0.0157483
0.219992 0.5 -0.1125 0.0172104
0.219992 0.5 0.1125 0.0172271
0.151149 0.5 -0.225 0.0191164
0.151149 0.5 0.225 0.0189125
0.0757758 0.5 -0.2625 0.0212078
0.0757758 0.5 0.2625 0.0206929
0.288069 0.5 -0.00137326 0.0140072
0.219992 0.5 -0.1875 0.0170119
0.219992 0.5 0.1875 0.0170594
0 0.5 -0.29382 0.0146973
0 0.5 0.29382 0.0142822
0.0124871 0.5 -0.29382 0.0157394
0.0124871 0.5 0.29382 0.0153047
0.288069 0.5 -0.075 0.0139562
0.288069 0.5 0.075 0.0139822
0 0.5 -0.3 0.0146524
0 0.5 0.3 0.0142346
0 0.5 -0.30618 0.0146124
0 0.5 0.30618 0.0141913
0.0124871 0.5 -0.30618 0.0156127
0.0124871 0.5 0.30618 0.0151711
0.288069 0.5 -0.15 0.013902
0.288069 0.5 0.15 0.0139475
0.151149 0.5 -0.3 0.0185976
0.151149 0.5 0.3 0.0183633
0.219992 0.5 -0.2625 0.0166993
0.219992 0.5 0.2625 0.0167471
0.0757758 0.5 -0.3375 0.0204475
0.0757758 0.5 0.3375 0.0198908
0.350249 0.5 -0.0375 0.0108648
0.350249 0.5 0.0375 0.0108791
0.288069 0.5 -0.225 0.0137985
0.288069 0.5 0.225 0.0138574
0.350249 0.5 -0.1125 0.0108691
0.350249 0.5 0.1125 0.0109285
0 0.5 0.36882 0.0137367
0 0.5 -0.36882 0.0141782
0.0124871 0.5 -0.36882 0.0151785
0.0124871 0.5 0.36882 0.0147165
0 0.5 -0.375 0.014133
0 0.5 0.375 0.013691
0 0.5 -0.38118 0.0140907
0 0.5 0.38118 0.0136471
0.0124871 0.5 -0.38118 0.0150485
0.0124871 0.5 0.38118 0.014584
0.350249 0.5 -0.1875 0.0109207
0.350249 0.5 0.1875 0.0109776
0.219992 0.5 -0.3375 0.0163342
0.219992 0.5 0.3375 0.0163813
0.151149 0.5 -0.375 0.0180341
0.151149 0.5 0.375 0.0177824
0.411736 0.5 -0.00137326 0.00926809
0.288069 0.5 -0.3 0.0136533
0.288069 0.5 0.3 0.0137217
0.411736 0.5 -0.075 0.00925986
0.411736 0.5 0.075 0.00928492
0.0757758 0.5 -0.4125 0.0196673
0.0757758 0.5 0.4125 0.0190957
0.350249 0.5 -0.2625 0.0109472
0.350249 0.5 0.2625 0.011029
0.411736 0.5 -0.15 0.00929335
0.411736 0.5 0.15 0.00933955
0 0.5 -0.44382 0.0136589
0 0.5 0.44382 0.0132133
0.0124871 0.5 -0.44382 0.0146167
0.0124871 0.5 0.44382 0.0141503
0 0.5 -0.45 0.0136167
0 0.5 0.45 0.0131725
0 0.5 -0.45618 0.013575
0 0.5 0.45618 0.0131309
0.0124871 0.5 -0.45618 0.0144927
0.0124871 0.5 0.45618 0.0140279
0.219992 0.5 -0.4125 0.0159574
0.219992 0.5 0.4125 0.0159908
0.411736 0.5 0.225 0.00940859
0.411736 0.5 -0.225 0.00935182
0.467897 0.5 0.0375 0.00773787
0.467897 0.5 -0.0375 0.00773276
0.288069 0.5 -0.375 0.0135031
0.288069 0.5 0.375 0.013572
0.151149 0.5 -0.45 0.0174754
0.151149 0.5 0.45 0.0172119
0.467897 0.5 -0.1125 0.00776248
0.467897 0.5 0.1125 0.00778528
0.350249 0.5 -0.3375 0.010993
0.350249 0.5 0.3375 0.0110875
0.0757758 0.5 0.4875 0.0183605
0.0757758 0.5 -0.4875 0.0189239
0.467897 0.5 -0.1875 0.00781017
0.467897 0.5 0.1875 0.00785727
0.411736 0.5 -0.3 0.00942716
0.411736 0.5 0.3 0.00948855
0 0.5 -0.51882 0.0131757
0 0.5 0.51882 0.0127446
0.0124871 0.5 -0.51882 0.0140934
0.0124871 0.5 0.51882 0.0136417
0.523432 0.5 -0.00137326 0.00682243
0 0.5 -0.525 0.0131393
0 0.5 0.525 0.0127108
0.523432 0.5 -0.075 0.0068301
0.523432 0.5 0.075 0.00683798
0 0.5 -0.53118 0.0131015
0 0.5 0.53118 0.0126755
0.0124871 0.5 -0.53118 0.0139847
0.0124871 0.5 0.53118 0.01354
0.288069 0.5 -0.45 0.0133647
0.288069 0.5 0.45 0.0134232
0.219992 0.5 -0.4875 0.0155948
0.219992 0.5 0.4875 0.0156025
0.467897 0.5 -0.2625 0.00791591
0.467897 0.5 0.2625 0.00795876
0.350249 0.5 -0.4125 0.0110603
0.350249 0.5 0.4125 0.0111575
0.523432 0.5 -0.15 0.00687337
0.523432 0.5 0.15 0.0068938
0.151149 0.5 -0.525 0.0169589
0.151149 0.5 0.525 0.0166881
0.411736 0.5 -0.375 0.00952351
0.411736 0.5 0.375 0.00958446
0.0757758 0.5 -0.5625 0.0182663
0.0757758 0.5 0.5625 0.0177347
0.523432 0.5 -0.225 0.00695035
0.523432 0.5 0.225 0.00697752
0.574156 0.5 0.0375 0.00594618
0.574156 0.5 -0.0375 0.00594683
0.467897 0.5 -0.3375 0.00803463
0.467897 0.5 0.3375 0.00806431
0.574156 0.5 -0.1125 0.00597906
0.574156 0.5 0.1125 0.00598398
0 0.5 -0.59382 0.012755
0 0.5 0.59382 0.0123487
0.0124871 0.5 -0.59382 0.0136382
0.0124871 0.5 0.59382 0.0132131
0.288069 0.5 -0.525 0.0132502
0.288069 0.5 0.525 0.0132867
0 0.5 -0.6 0.0127252
0 0.5 0.6 0.0123203
0.350249 0.5 0.4875 0.0112407
0.350249 0.5 -0.4875 0.0111497
0.523432 0.5 -0.3 0.00706101
0.523432 0.5 0.3 0.0070823
0.219992 0.5 -0.5625 0.015267
0.219992 0.5 0.5625 0.0152352
0.574156 0.5 -0.1875 0.00604199
0.574156 0.5 0.1875 0.00605054
0 0.5 -0.60618 0.0126939
0 0.5 0.60618 0.0122915
0.0124871 0.5 -0.60618 0.0135497
0.0124871 0.5 0.60618 0.0131288
0.411736 0.5 -0.45 0.00964654
0.411736 0.5 0.45 0.00970408
0.151149 0.5 -0.6 0.0165111
0.151149 0.5 0.6 0.0162318
0.62168 0.5 4.33681e-17 0.0053965
0.467897 0.5 -0.4125 0.00818359
0.467897 0.5 0.4125 0.00821013
0.624316 0.5 0.0729401 0.00537709
0.624316 0.5 -0.075 0.00537828
0.574156 0.5 -0.2625 0.0061335
0.574156 0.5 0.2625 0.00614569
0.0757758 0.5 -0.6375 0.0177195
0.0757758 0.5 0.6375 0.0172121
0.624316 0.5 -0.15 0.00542515
0.624316 0.5 0.15 0.00542506
0.523432 0.5 -0.375 0.00719867
0.523432 0.5 0.375 0.00720955
0.350249 0.5 -0.5625 0.0112635
0.350249 0.5 0.5625 0.0113371
0.624316 0.5 -0.225 0.00549974
0.624316 0.5 0.225 0.00550047
0.288069 0.5 -0.6 0.0131684
0.288069 0.5 0.6 0.0131725
0.574156 0.5 -0.3375 0.00626034
0.574156 0.5 0.3375 0.0062625
0.411736 0.5 0.525 0.00984365
0.411736 0.5 -0.525 0.00979732
0 0.5 0.66882 0.0120277
0 0.5 -0.66882 0.0124082
0.0124871 0.5 -0.66882 0.013264
0.0124871 0.5 0.66882 0.0128651
0.67013 0.5 -0.0375 0.00480735
0.67013 0.5 0.0375 0.00480382
0.219992 0.5 -0.6375 0.0149873
0.219992 0.5 0.6375 0.0149101
0 0.5 -0.675 0.0123839
0 0.5 0.675 0.0120052
0.467897 0.5 -0.4875 0.0083648
0.467897 0.5 0.4875 0.00838452
0.67013 0.5 -0.1125 0.00483906
0.67013 0.5 0.1125 0.0048339
0 0.5 -0.68118 0.012359
0 0.5 0.68118 0.0119825
0.0124871 0.5 -0.68118 0.0131933
0.0124871 0.5 0.68118 0.0127985
0.523432 0.5 -0.45 0.00736716
0.523432 0.5 0.45 0.00736835
0.151149 0.5 -0.675 0.0161444
0.151149 0.5 0.675 0.0158542
0.624316 0.5 -0.3 0.00560458
0.624316 0.5 0.3 0.00560245
0.67013 0.5 -0.1875 0.00489972
0.67013 0.5 0.1875 0.00489179
0.574156 0.5 0.4125 0.00640318
0.574156 0.5 -0.4125 0.00641606
0.708171 0.5 3.5345e-17 0.00447151
0.0757758 0.5 -0.7125 0.0172823
0.0757758 0.5 0.7125 0.0168072
0.715434 0.5 0.0736267 0.00442774
0.715434 0.5 -0.075 0.00442488
0.67013 0.5 -0.2625 0.00498325
0.67013 0.5 0.2625 0.00497439
0.350249 0.5 -0.6375 0.0114021
0.350249 0.5 0.6375 0.0114471
0.411736 0.5 0.6 0.0100018
0.411736 0.5 -0.6 0.00997618
0.624316 0.5 -0.375 0.00574092
0.624316 0.5 0.375 0.00572552
0.715434 0.5 -0.15 0.00446919
0.715434 0.5 0.15 0.0044596
0.467897 0.5 -0.5625 0.00857769
0.467897 0.5 0.5625 0.00858307
0.288069 0.5 -0.675 0.0131258
0.288069 0.5 0.675 0.0130896
0.523432 0.5 -0.525 0.00756786
0.523432 0.5 0.525 0.00755602
0 0.5 0.74382 0.0117839
0 0.5 -0.74382 0.0121378
0.0124871 0.5 -0.74382 0.0129721
0.0124871 0.5 0.74382 0.0125999
0.219992 0.5 0.7125 0.0146405
0.219992 0.5 -0.7125 0.0147673
0.715434 0.5 -0.225 0.00453977
0.715434 0.5 0.225 0.00452531
0 0.5 -0.75 0.0121198
0 0.5 0.75 0.0117682
0.67013 0.5 -0.3375 0.00510118
0.67013 0.5 0.3375 0.00508816
0.574156 0.5 -0.4875 0.00660378
0.574156 0.5 0.4875 0.00657765
0 0.5 0.75618 0.0117512
0 0.5 -0.75618 0.0121009
0.0124871 0.5 -0.75618 0.0129198
0.0124871 0.5 0.75618 0.0125522
0.756814 0.5 0.0375 0.00402537
0.756814 0.5 -0.0375 0.00403014
0.151149 0.5 0.75 0.0155627
0.151149 0.5 -0.75 0.0158649
0.756814 0.5 -0.1125 0.00405979
0.756814 0.5 0.1125 0.00405012
0.624316 0.5 -0.45 0.00590686
0.624316 0.5 0.45 0.00587477
0.715434 0.5 -0.3 0.00463506
0.715434 0.5 0.3 0.00461699
0.756814 0.5 -0.1875 0.00411515
0.756814 0.5 0.1875 0.0040999
0.67013 0.5 -0.4125 0.00524653
0.67013 0.5 0.4125 0.00520975
0.411736 0.5 -0.675 0.010183
0.411736 0.5 0.675 0.0101783
0.467897 0.5 -0.6375 0.00882162
0.467897 0.5 0.6375 0.00880421
0.0757758 0.5 -0.7875 0.0169642
0.0757758 0.5 0.7875 0.0165149
0.350249 0.5 -0.7125 0.0115666
0.350249 0.5 0.7125 0.0115729
0.523432 0.5 0.6 0.00776922
0.523432 0.5 -0.6 0.00780071
0.797732 0.5 1.60462e-17 0.00374675
0.756814 0.5 -0.2625 0.00419807
0.756814 0.5 0.2625 0.00417289
0.797732 0.5 0.0736267 0.00375867
0.797732 0.5 -0.075 0.00376321
0.288069 0.5 0.75 0.0130435
0.288069 0.5 -0.75 0.0131265
0.574156 0.5 -0.5625 0.00682441
0.574156 0.5 0.5625 0.00678083
0.715434 0.5 -0.375 0.00475839
0.715434 0.5 0.375 0.00473141
0.797732 0.5 -0.15 0.00380362
0.797732 0.5 0.15 0.00379059
0.624316 0.5 -0.525 0.00610444
0.624316 0.5 0.525 0.00605633
0.219992 0.5 -0.7875 0.0146116
0.219992 0.5 0.7875 0.0144333
0 0.5 -0.81882 0.0119453
0 0.5 0.81882 0.0116162
0.0124871 0.5 -0.81882 0.0127643
0.0124871 0.5 0.81882 0.0124172
0 0.5 -0.825 0.0119348
0 0.5 0.825 0.0116077
0.756814 0.5 -0.3375 0.00429533
0.756814 0.5 0.3375 0.00427085
0.67013 0.5 0.4875 0.00537087
0.67013 0.5 -0.4875 0.00542213
0.797732 0.5 0.225 0.00384831
0.797732 0.5 -0.225 0.00386931
0 0.5 -0.83118 0.0119217
0 0.5 0.83118 0.0115969
0.0124871 0.5 -0.83118 0.0127324
0.0124871 0.5 0.83118 0.01239
0.835107 0.5 -0.0375 0.0034799
0.835107 0.5 0.0375 0.00347507
0.151149 0.5 -0.825 0.0156763
0.151149 0.5 0.825 0.0153604
0.835107 0.5 0.1125 0.00349636
0.835107 0.5 -0.1125 0.00350653
0.715434 0.5 -0.45 0.00491192
0.715434 0.5 0.45 0.00486658
0.797732 0.5 -0.3 0.00395417
0.797732 0.5 0.3 0.00392868
0.467897 0.5 0.7125 0.00904637
0.467897 0.5 -0.7125 0.0090954
0.523432 0.5 -0.675 0.00806508
0.523432 0.5 0.675 0.00800635
0.411736 0.5 0.75 0.010373
0.411736 0.5 -0.75 0.0104174
0.835107 0.5 -0.1875 0.0035567
0.835107 0.5 0.1875 0.00353973
0.574156 0.5 0.6375 0.00701046
0.574156 0.5 -0.6375 0.00707789
0.350249 0.5 -0.7875 0.011757
0.350249 0.5 0.7875 0.0117156
0.756814 0.5 -0.4125 0.0044289
0.756814 0.5 0.4125 0.00439551
0.0757758 0.5 -0.8625 0.0167626
0.0757758 0.5 0.8625 0.0163398
0.624316 0.5 -0.6 0.00633446
0.624316 0.5 0.6 0.00626508
0.872064 0.5 4.81386e-17 0.00325765
0.870122 0.5 0.075 0.00327931
0.288069 0.5 -0.825 0.0131723
0.288069 0.5 0.825 0.0130384
0.67013 0.5 -0.5625 0.00562915
0.67013 0.5 0.5625 0.00555907
0.872064 0.5 -0.075 0.00327254
0.835107 0.5 -0.2625 0.00363128
0.835107 0.5 0.2625 0.0036048
0.797732 0.5 -0.375 0.00406297
0.797732 0.5 0.375 0.00403415
0.872064 0.5 0.14794 0.00329531
0.872064 0.5 -0.15 0.00330874
0.715434 0.5 0.525 0.00502932
0.715434 0.5 -0.525 0.0050947
0.219992 0.5 -0.8625 0.0145228
0.219992 0.5 0.8625 0.0142942
0 0.5 -0.89382 0.0118341
0 0.5 0.89382 0.0115263
0.0124871 0.5 -0.89382 0.0126447
0.0124871 0.5 0.89382 0.0123194
0 0.5 -0.9 0.0118299
0 0.5 0.9 0.0115228
0.756814 0.5 -0.4875 0.00458916
0.756814 0.5 0.4875 0.00452936
0.872064 0.5 -0.225 0.00336725
0.872064 0.5 0.225 0.00334618
0.835107 0.5 0.3375 0.00369069
0.835107 0.5 -0.3375 0.00371639
0 0.5 -0.90618 0.0118259
0 0.5 0.90618 0.01152
0.0124871 0.5 -0.90618 0.012637
0.0124871 0.5 0.90618 0.0123119
0.905821 0.5 0.0375 0.0030437
0.905821 0.5 -0.0375 0.0030484
0.151149 0.5 -0.9 0.015582
0.151149 0.5 0.9 0.0152492
0.905821 0.5 -0.1125 0.00307184
0.905821 0.5 0.1125 0.00306207
0.523432 0.5 -0.75 0.00836009
0.523432 0.5 0.75 0.00826592
0.574156 0.5 -0.7125 0.0073636
0.574156 0.5 0.7125 0.00726548
0.797732 0.5 -0.45 0.00420224
0.797732 0.5 0.45 0.00415605
0.467897 0.5 0.7875 0.00930743
0.467897 0.5 -0.7875 0.00939768
0.624316 0.5 -0.675 0.00659706
0.624316 0.5 0.675 0.00650003
0.411736 0.5 -0.825 0.0106787
0.411736 0.5 0.825 0.0105865
0.872064 0.5 -0.3 0.00344582
0.872064 0.5 0.3 0.0034172
0.67013 0.5 0.6375 0.00577386
0.67013 0.5 -0.6375 0.00586884
0.905821 0.5 -0.1875 0.00311656
0.905821 0.5 0.1875 0.00309979
0.350249 0.5 -0.8625 0.0119733
0.350249 0.5 0.8625 0.0118777
0.835107 0.5 -0.4125 0.00383623
0.835107 0.5 0.4125 0.00380454
0.715434 0.5 -0.6 0.00530847
0.715434 0.5 0.6 0.00522097
0.939201 0.5 3.31766e-17 0.00293512
0.0757758 0.5 -0.9375 0.0166957
0.0757758 0.5 0.9375 0.0162829
0.939112 0.5 0.075 0.00294391
0.939201 0.5 -0.075 0.00294845
0.756814 0.5 -0.5625 0.00477816
0.756814 0.5 0.5625 0.00469826
0.905821 0.5 0.2625 0.00315736
0.905821 0.5 -0.2625 0.00318142
0.288069 0.5 -0.9 0.0132633
0.288069 0.5 0.9 0.0130762
0.872064 0.5 -0.375 0.00354402
0.872064 0.5 0.375 0.00351111
0.939201 0.5 0.148627 0.00297186
0.939201 0.5 -0.15 0.00298146
0.797732 0.5 -0.525 0.00436786
0.797732 0.5 0.525 0.00429907
0.219992 0.5 -0.9375 0.0144982
0.219992 0.5 0.9375 0.0142202
0.939201 0.5 -0.225 0.00303476
0.939201 0.5 0.225 0.00301805
0.905821 0.5 -0.3375 0.00327124
0.905821 0.5 0.3375 0.00323324
0.835107 0.5 -0.4875 0.00398027
0.835107 0.5 0.4875 0.0039204
0 0.5 -0.96882 0.0117932
0 0.5 0.96882 0.011495
0.0124871 0.5 -0.96882 0.0126043
0.0124871 0.5 0.96882 0.0122869
0.96969 0.5 -0.0375 0.00282982
0.96969 0.5 0.0375 0.00282581
0.574156 0.5 0.7875 0.00754468
0.574156 0.5 -0.7875 0.00768113
0 0.5 -0.975 0.0117874
0 0.5 0.975 0.0114895
0.624316 0.5 -0.75 0.00689188
0.624316 0.5 0.75 0.00676057
0.96969 0.5 -0.1125 0.00285103
0.96969 0.5 0.1125 0.00284493
0.523432 0.5 -0.825 0.00868489
0.523432 0.5 0.825 0.00854693
0.67013 0.5 -0.7125 0.00614108
0.67013 0.5 0.7125 0.00601501
0 0.5 -0.98118 0.0117862
0 0.5 0.98118 0.011488
0.467897 0.5 -0.8625 0.00972719
0.467897 0.5 0.8625 0.0095886
0.0124871 0.5 -0.98118 0.0125934
0.0124871 0.5 0.98118 0.0122727
0.872064 0.5 0.45 0.00362041
0.872064 0.5 -0.45 0.00366551
0.715434 0.5 -0.675 0.00555412
0.715434 0.5 0.675 0.00543896
0.939201 0.5 0.3 0.00308414
0.939201 0.5 -0.3 0.00310909
0.151149 0.5 -0.975 0.0155626
0.151149 0.5 0.975 0.0152029
0.96969 0.5 -0.1875 0.0028938
0.96969 0.5 0.1875 0.00288274
0.756814 0.5 0.6375 0.00489391
0.756814 0.5 -0.6375 0.00499844
0.411736 0.5 -0.9 0.0109665
0.411736 0.5 0.9 0.0108209
0.905821 0.5 -0.4125 0.0033696
0.905821 0.5 0.4125 0.00333368
0.995005 0.5 0.0749309 0.00270575
0.797732 0.5 -0.6 0.0045628
0.797732 0.5 0.6 0.0044727
1.00005 0.5 3.26706e-18 0.00266872
0.350249 0.5 0.9375 0.0120617
0.350249 0.5 -0.9375 0.0122158
1.00005 0.5 -0.0749309 0.00268046
0.96969 0.5 -0.2625 0.00295471
0.96969 0.5 0.2625 0.00293953
0.835107 0.5 -0.5625 0.0041502
0.835107 0.5 0.5625 0.00407456
1.00005 0.5 -0.149862 0.00271089
0.939201 0.5 -0.375 0.00320085
0.939201 0.5 0.375 0.00316984
1.00029 0.5 0.148988 0.00270718
0.0757758 0.5 -1.0125 0.0166711
0.0757758 0.5 1.0125 0.016243
0.288069 0.5 -0.975 0.0134015
0.288069 0.5 0.975 0.0131548
0.872064 0.5 -0.525 0.00381299
0.872064 0.5 0.525 0.00374985
1.00005 0.5 0.224793 0.00274907
1.00005 0.5 -0.224793 0.00276085
0.96969 0.5 0.3375 0.00301368
0.96969 0.5 -0.3375 0.00303666
1.02709 0.5 0.0368226 0.0025002
1.02709 0.5 -0.0368226 0.00250297
0.905821 0.5 0.4875 0.00344116
0.905821 0.5 -0.4875 0.00349409
1.02709 0.5 -0.110468 0.00252114
1.02709 0.5 0.110468 0.00250565
0.67013 0.5 -0.7875 0.00644558
0.67013 0.5 0.7875 0.00628249
0.624316 0.5 -0.825 0.00721862
0.624316 0.5 0.825 0.00704574
0.219992 0.5 -1.0125 0.0145338
0.219992 0.5 1.0125 0.0142056
0.574156 0.5 -0.8625 0.00803001
0.574156 0.5 0.8625 0.0078462
0.715434 0.5 -0.75 0.00583189
0.715434 0.5 0.75 0.00568319
0.756814 0.5 -0.7125 0.00524977
0.756814 0.5 0.7125 0.00511522
0.523432 0.5 0.9 0.00884959
0.523432 0.5 -0.9 0.00903856
0.939201 0.5 0.45 0.00327299
0.939201 0.5 -0.45 0.00332188
1.04168 0.5 0 0.00242429
1.02709 0.5 -0.184113 0.00255855
1.02709 0.5 0.184113 0.00255043
0 0.5 1.04382 0.011482
0 0.5 -1.04382 0.0117686
0.0124871 0.5 -1.04382 0.0125758
0.0124871 0.5 1.04382 0.0122667
1.00005 0.5 -0.299723 0.00283023
1.00005 0.5 0.299723 0.00281267
1.04168 0.5 -0.0729162 0.00243377
1.04168 0.5 0.0729162 0.00243027
0.797732 0.5 -0.675 0.00479006
0.797732 0.5 0.675 0.00467086
0.467897 0.5 -0.9375 0.0100832
0.467897 0.5 0.9375 0.00989171
0 0.5 -1.05 0.0117643
0 0.5 1.05 0.0114809
0.835107 0.5 0.6375 0.00425111
0.835107 0.5 -0.6375 0.00435155
1.04168 0.5 -0.145832 0.00245882
1.04168 0.5 0.145832 0.00245299
0.96969 0.5 -0.4125 0.0031337
0.96969 0.5 0.4125 0.0031062
0 0.5 -1.05618 0.0117604
0 0.5 1.05618 0.0114803
0.0124871 0.5 -1.05618 0.0125579
0.0124871 0.5 1.05618 0.0122582
1.05694 0.5 -0.0360765 0.00234795
1.05694 0.5 0.0360765 0.00234512
0.411736 0.5 0.975 0.0110766
0.411736 0.5 -0.975 0.0112879
0.872064 0.5 -0.6 0.00399134
0.872064 0.5 0.6 0.00390665
1.02709 0.5 -0.257758 0.00261355
1.02709 0.5 0.257758 0.00260114
0.151149 0.5 -1.05 0.0155723
0.151149 0.5 1.05 0.0151912
1.05694 0.5 -0.108229 0.00236228
1.05694 0.5 0.108229 0.0023425
1.04168 0.5 -0.218749 0.00250084
1.04168 0.5 0.218749 0.00249113
0.905821 0.5 -0.5625 0.00364628
0.905821 0.5 0.5625 0.00358181
1.00005 0.5 -0.374654 0.00291986
1.00005 0.5 0.374654 0.00289408
0.350249 0.5 -1.0125 0.0124983
0.350249 0.5 1.0125 0.0122651
1.05694 0.5 -0.180382 0.00239308
1.05694 0.5 0.180382 0.00238544
1.07319 0.5 0.0709442 0.00228561
0.939201 0.5 0.525 0.00339839
0.939201 0.5 -0.525 0.00346993
1.02709 0.5 -0.331404 0.00268832
1.02709 0.5 0.331404 0.00266902
1.08112 0.5 -3.98986e-18 0.00225209
1.04168 0.5 -0.291665 0.00255984
1.04168 0.5 0.291665 0.00254502
1.08112 0.5 -0.0709442 0.00225955
0.96969 0.5 -0.4875 0.00329724
0.96969 0.5 0.4875 0.00321837
1.05694 0.5 -0.252535 0.00243826
1.05694 0.5 0.252535 0.00242657
0.288069 0.5 -1.05 0.0135831
0.288069 0.5 1.05 0.0132698
0.0757758 0.5 -1.0875 0.0165992
0.0757758 0.5 1.0875 0.0162062
1.08112 0.5 -0.141888 0.00227999
1.08145 0.5 0.140165 0.00227976
0.715434 0.5 -0.825 0.00614344
0.715434 0.5 0.825 0.00595341
0.756814 0.5 -0.7875 0.00553377
0.756814 0.5 0.7875 0.00536314
0.67013 0.5 -0.8625 0.00678228
0.67013 0.5 0.8625 0.00657548
0.797732 0.5 0.75 0.00489485
0.797732 0.5 -0.75 0.00504945
0.624316 0.5 -0.9 0.00757698
0.624316 0.5 0.9 0.00735436
1.00005 0.5 -0.449585 0.00304477
1.00005 0.5 0.449585 0.00299561
0.835107 0.5 -0.7125 0.00458834
0.835107 0.5 0.7125 0.00445108
0.574156 0.5 -0.9375 0.00840905
0.574156 0.5 0.9375 0.0081699
1.10076 0.5 0.034981 0.00218186
1.10076 0.5 -0.034981 0.00218383
1.08112 0.5 -0.212833 0.00231496
1.08112 0.5 0.212833 0.0023084
0.872064 0.5 -0.675 0.0042019
0.872064 0.5 0.675 0.00408508
1.04168 0.5 -0.364581 0.00263903
1.04168 0.5 0.364581 0.00261479
1.02709 0.5 0.405049 0.00275443
1.02709 0.5 -0.405049 0.00278649
1.05694 0.5 -0.324688 0.00250032
1.05694 0.5 0.324688 0.00248247
1.10076 0.5 -0.104943 0.00219523
1.10076 0.5 0.104943 0.00219423
0.523432 0.5 -0.975 0.00942547
0.523432 0.5 0.975 0.00917578
0.905821 0.5 -0.6375 0.00383671
0.905821 0.5 0.6375 0.0037383
0.219992 0.5 -1.0875 0.0146236
0.219992 0.5 1.0875 0.0142447
1.11376 0.5 0 0.00214053
0.939201 0.5 -0.6 0.00362097
0.939201 0.5 0.6 0.00355522
1.10076 0.5 -0.174905 0.00222232
1.10076 0.5 0.174905 0.0022196
0.467897 0.5 -1.0125 0.0104805
0.467897 0.5 1.0125 0.0102163
1.11376 0.5 -0.0693118 0.00214682
1.11376 0.5 0.0693118 0.0021457
1.08112 0.5 -0.283777 0.00236443
1.08112 0.5 0.283777 0.00235416
0 0.5 1.11882 0.0115299
0 0.5 -1.11882 0.0117945
0.0124871 0.5 -1.11882 0.012592
0.0124871 0.5 1.11882 0.0123077
0.96969 0.5 -0.5625 0.00344856
0.96969 0.5 0.5625 0.00335957
1.11376 0.5 -0.138624 0.00216546
1.11376 0.5 0.138624 0.00216637
0 0.5 -1.125 0.011806
0 0.5 1.125 0.0115411
1.10076 0.5 0.244867 0.00225756
1.10076 0.5 -0.244867 0.00226202
0.411736 0.5 -1.05 0.0116426
0.411736 0.5 1.05 0.0113527
1.05694 0.5 -0.396841 0.00258361
1.05694 0.5 0.396841 0.00255307
1.00005 0.5 -0.524516 0.00318339
1.00005 0.5 0.524516 0.00312102
1.04168 0.5 -0.437497 0.00274421
1.04168 0.5 0.437497 0.00270347
0 0.5 -1.13118 0.0118156
0 0.5 1.13118 0.0115515
0.0124871 0.5 -1.13118 0.0126234
0.0124871 0.5 1.13118 0.012338
1.11376 0.5 -0.207935 0.00219802
1.11376 0.5 0.207935 0.00219543
1.02709 0.5 -0.478694 0.00291376
1.02709 0.5 0.478694 0.00286256
0.151149 0.5 -1.125 0.0156672
0.151149 0.5 1.125 0.0152648
1.08112 0.5 0.354721 0.00241378
1.08112 0.5 -0.354721 0.00243162
1.13882 0.5 0.0340295 0.00205592
1.13882 0.5 -0.0340295 0.0020572
0.350249 0.5 -1.0875 0.0128018
0.350249 0.5 1.0875 0.0124841
1.13882 0.5 -0.102088 0.00206712
1.13882 0.5 0.102088 0.00206342
1.10076 0.5 0.314829 0.00230941
1.10076 0.5 -0.314829 0.00231704
0.756814 0.5 -0.8625 0.00585558
0.756814 0.5 0.8625 0.00563656
0.797732 0.5 -0.825 0.00534359
0.797732 0.5 0.825 0.0051458
1.11376 0.5 -0.277247 0.0022441
1.11376 0.5 0.277247 0.00223952
0.835107 0.5 0.7875 0.00467872
0.835107 0.5 -0.7875 0.00485449
0.715434 0.5 -0.9 0.00649164
0.715434 0.5 0.9 0.00624913
0.872064 0.5 -0.75 0.00444459
0.872064 0.5 0.75 0.00429079
1.13882 0.5 0.170147 0.0020917
1.13882 0.5 -0.170147 0.00209214
0.67013 0.5 -0.9375 0.00715164
0.67013 0.5 0.9375 0.00689216
0.905821 0.5 -0.7125 0.004051
0.905821 0.5 0.7125 0.00391975
1.05694 0.5 -0.468994 0.00269164
1.05694 0.5 0.468994 0.00264425
0.939201 0.5 -0.675 0.00379929
0.939201 0.5 0.675 0.00372303
0.624316 0.5 -0.975 0.00796992
0.624316 0.5 0.975 0.00768827
1.04168 0.5 -0.510414 0.00285184
1.04168 0.5 0.510414 0.00281359
0.96969 0.5 -0.6375 0.00356013
0.96969 0.5 0.6375 0.00354798
0.288069 0.5 -1.125 0.0138105
0.288069 0.5 1.125 0.0134234
1.16179 0.5 0 0.0019756
1.08112 0.5 -0.425665 0.0025206
1.08112 0.5 0.425665 0.00248975
1.13882 0.5 0.238206 0.00212756
1.13882 0.5 -0.238206 0.00212878
1.16179 0.5 -0.0669104 0.00198021
1.16179 0.5 0.0669104 0.00196873
0.574156 0.5 1.0125 0.00852187
0.574156 0.5 -1.0125 0.00882319
0.0757758 0.5 1.1625 0.0163725
0.0757758 0.5 -1.1625 0.0167609
1.00005 0.5 -0.599447 0.0033198
1.00005 0.5 0.599447 0.0032803
1.10076 0.5 -0.384791 0.00239061
1.10076 0.5 0.384791 0.00237437
1.02709 0.5 -0.552339 0.00302651
1.02709 0.5 0.552339 0.00299381
1.11376 0.5 0.346559 0.00229681
1.11376 0.5 -0.346559 0.00230648
1.16179 0.5 -0.133821 0.00199593
1.16179 0.5 0.133821 0.00199562
0.523432 0.5 -1.05 0.00984945
0.523432 0.5 1.05 0.00952659
1.17463 0.5 -0.0331343 0.00193307
1.17463 0.5 0.0331343 0.00193201
1.17463 0.5 -0.099403 0.00194021
1.17463 0.5 0.099403 0.00194239
1.16179 0.5 -0.200731 0.00202441
1.16179 0.5 0.200731 0.00202504
1.13882 0.5 -0.306265 0.00217937
1.13882 0.5 0.306265 0.00217638
0.219992 0.5 -1.1625 0.0148164
0.219992 0.5 1.1625 0.0143689
0.467897 0.5 -1.0875 0.0109089
0.467897 0.5 1.0875 0.010566
1.17463 0.5 -0.165672 0.00196257
1.17463 0.5 0.165672 0.00196427
1.05694 0.5 0.541147 0.00275524
1.05694 0.5 -0.541147 0.00277703
1.18772 0.5 0 0.00188976
1.11376 0.5 -0.415871 0.00238776
1.11376 0.5 0.415871 0.00236911
1.18772 0.5 -0.065614 0.00189331
1.18772 0.5 0.065614 0.001895
1.08112 0.5 -0.49661 0.00261105
1.08112 0.5 0.49661 0.00258425
1.10076 0.5 -0.454752 0.00248695
1.10076 0.5 0.454752 0.00245728
1.18534 0.5 0.118202 0.00190978
1.16179 0.5 -0.267642 0.0020645
1.16179 0.5 0.267642 0.00206448
0 0.5 -1.19382 0.0119162
0 0.5 1.19382 0.0116625
1.04168 0.5 -0.58333 0.00297515
1.04168 0.5 0.58333 0.00294962
0.0124871 0.5 -1.19382 0.012724
0.0124871 0.5 1.19382 0.012449
1.18772 0.5 -0.131228 0.00190704
1.17463 0.5 -0.23194 0.00199454
1.17463 0.5 0.23194 0.00199628
0.411736 0.5 -1.125 0.0120116
0.411736 0.5 1.125 0.0116419
1.13882 0.5 -0.374324 0.00224603
1.13882 0.5 0.374324 0.00223755
0 0.5 -1.2 0.0119259
0 0.5 1.2 0.0116734
0.905821 0.5 -0.7875 0.00430516
0.905821 0.5 0.7875 0.0041341
0.872064 0.5 -0.825 0.00472222
0.872064 0.5 0.825 0.00452691
0.835107 0.5 0.8625 0.00493434
0.835107 0.5 -0.8625 0.00515978
0.939201 0.5 -0.75 0.00402009
0.939201 0.5 0.75 0.00389987
0.797732 0.5 -0.9 0.00567561
0.797732 0.5 0.9 0.00542535
1.02709 0.5 -0.625985 0.00318469
1.02709 0.5 0.625985 0.00315367
0.96969 0.5 -0.7125 0.00375875
0.96969 0.5 0.7125 0.0036929
1.18772 0.5 -0.196842 0.00193276
1.18772 0.5 0.196842 0.00193561
0.756814 0.5 -0.9375 0.00622094
0.756814 0.5 0.9375 0.00593718
0 0.5 -1.20618 0.0119368
0 0.5 1.20618 0.0116853
1.00005 0.5 -0.674378 0.00349055
1.00005 0.5 0.674378 0.0034382
0.0124871 0.5 -1.20618 0.0127515
0.0124871 0.5 1.20618 0.0124786
1.16179 0.5 -0.334552 0.00211867
1.16179 0.5 0.334552 0.00211584
0.715434 0.5 -0.975 0.00687776
0.715434 0.5 0.975 0.00657215
0.151149 0.5 -1.2 0.0158702
0.151149 0.5 1.2 0.0154351
1.20942 0.5 -0.0322645 0.00181691
1.20942 0.5 0.0322645 0.00181535
1.17463 0.5 -0.298209 0.00203903
1.17463 0.5 0.298209 0.00204023
1.20942 0.5 -0.0967935 0.00182183
1.20942 0.5 0.0967935 0.00182569
0.350249 0.5 -1.1625 0.0131142
0.350249 0.5 1.1625 0.0127067
0.67013 0.5 1.0125 0.00723582
0.67013 0.5 -1.0125 0.00756118
1.11376 0.5 -0.485183 0.00247502
1.11376 0.5 0.485183 0.00245811
1.18772 0.5 -0.262456 0.00196901
1.18772 0.5 0.262456 0.00197199
1.10076 0.5 0.524714 0.00255689
1.10076 0.5 -0.524714 0.00256696
1.20942 0.5 -0.161322 0.00184107
1.20942 0.5 0.161322 0.0018453
1.08112 0.5 0.567554 0.00270048
1.08112 0.5 -0.567554 0.00271401
0.624316 0.5 -1.05 0.00840646
0.624316 0.5 1.05 0.00804868
1.13882 0.5 -0.442383 0.002328
1.13882 0.5 0.442383 0.00231444
1.05694 0.5 0.6133 0.00289264
1.05694 0.5 -0.6133 0.00291894
1.16179 0.5 -0.401463 0.00218608
1.16179 0.5 0.401463 0.00218031
0.574156 0.5 1.0875 0.0088973
0.574156 0.5 -1.0875 0.00927809
1.17463 0.5 -0.364478 0.00209807
1.17463 0.5 0.364478 0.00209531
1.20942 0.5 0.225851 0.00187368
1.20942 0.5 -0.225851 0.00186848
1.23036 0.5 1.15648e-18 0.00175
1.2294 0.5 0.0634819 0.0017571
1.04168 0.5 -0.656246 0.00314226
1.04168 0.5 0.656246 0.00308567
1.23036 0.5 -0.0634819 0.00175188
1.18772 0.5 0.32807 0.00201953
1.18772 0.5 -0.32807 0.00201833
0.288069 0.5 1.2 0.0136167
0.288069 0.5 -1.2 0.0141024
1.23036 0.5 -0.126964 0.00176277
1.23036 0.5 0.126964 0.00176777
0.0757758 0.5 -1.2375 0.0169387
0.0757758 0.5 1.2375 0.0165633
0.523432 0.5 -1.125 0.0102991
0.523432 0.5 1.125 0.00989626
1.02709 0.5 0.69963 0.00329159
1.02709 0.5 -0.69963 0.00337951
1.24275 0.5 -0.0314313 0.00171212
1.24275 0.5 0.0314313 0.00171241
1.20942 0.5 -0.29038 0.00190707
1.20942 0.5 0.29038 0.0019128
1.11376 0.5 -0.554494 0.00256995
1.11376 0.5 0.554494 0.00256541
1.23036 0.5 -0.190446 0.00178429
1.23036 0.5 0.190446 0.00179033
1.24275 0.5 -0.0942939 0.00171523
1.24275 0.5 0.0942939 0.0017207
1.13882 0.5 -0.510442 0.00241367
1.13882 0.5 0.510442 0.00240637
0.96969 0.5 0.7875 0.00386098
0.96969 0.5 -0.7875 0.00397577
1.00005 0.5 0.749309 0.00360087
1.00005 0.5 -0.749309 0.00370344
0.939201 0.5 -0.825 0.00426806
0.939201 0.5 0.825 0.00410807
0.905821 0.5 -0.8625 0.00459066
0.905821 0.5 0.8625 0.00438134
1.17463 0.5 0.430746 0.00216462
1.17463 0.5 -0.430746 0.00216616
1.10076 0.5 0.594676 0.00268081
1.10076 0.5 -0.594676 0.00268263
1.18772 0.5 -0.393684 0.00207911
1.18772 0.5 0.393684 0.00207929
1.24275 0.5 -0.157157 0.00173217
1.24275 0.5 0.157157 0.00173885
1.16179 0.5 -0.468373 0.00226881
1.16179 0.5 0.468373 0.00225953
0.467897 0.5 -1.1625 0.0113327
0.467897 0.5 1.1625 0.0109235
0.872064 0.5 -0.9 0.00503626
0.872064 0.5 0.9 0.00479612
1.25401 0.5 0 0.00168195
0.835107 0.5 -0.9375 0.00549634
0.835107 0.5 0.9375 0.0052235
1.25401 0.5 0.0622994 0.00168583
1.25401 0.5 -0.0622994 0.00168306
1.08112 0.5 0.638498 0.00281741
1.08112 0.5 -0.638498 0.0028574
1.23036 0.5 -0.253928 0.00181463
1.23036 0.5 0.253928 0.00182182
0.219992 0.5 -1.2375 0.0150927
0.219992 0.5 1.2375 0.0145706
1.2531 0.5 0.121964 0.00169882
1.05694 0.5 -0.685453 0.00309124
1.05694 0.5 0.685453 0.00300367
0.797732 0.5 -0.975 0.00604343
0.797732 0.5 0.975 0.00573366
1.25401 0.5 -0.124599 0.00169256
1.20942 0.5 -0.354909 0.00195904
1.20942 0.5 0.354909 0.00196223
1.24275 0.5 -0.220019 0.00175606
1.24275 0.5 0.220019 0.00176452
0.756814 0.5 -1.0125 0.00662146
0.756814 0.5 1.0125 0.00626893
1.25401 0.5 -0.186898 0.00171207
1.25401 0.5 0.186898 0.00171996
0.411736 0.5 -1.2 0.0124118
0.411736 0.5 1.2 0.0119207
0 0.5 -1.26882 0.0120713
0 0.5 1.26882 0.0118298
0.0124871 0.5 -1.26882 0.012886
0.0124871 0.5 1.26882 0.0126231
0.715434 0.5 -1.05 0.00730545
0.715434 0.5 1.05 0.0069258
1.23036 0.5 -0.317409 0.00185651
1.23036 0.5 0.317409 0.00186321
1.04168 0.5 -0.729162 0.00334142
1.04168 0.5 0.729162 0.00323465
1.18772 0.5 -0.459298 0.00215869
1.18772 0.5 0.459298 0.0021531
1.24275 0.5 0.282882 0.00179968
1.24275 0.5 -0.282882 0.00178968
0 0.5 -1.275 0.0120863
0 0.5 1.275 0.0118458
1.27472 0.5 -0.0306319 0.00161579
1.27472 0.5 0.0306319 0.00161686
1.17463 0.5 -0.497015 0.00225998
1.17463 0.5 0.497015 0.00224829
1.11376 0.5 0.623806 0.00267889
1.11376 0.5 -0.623806 0.00269584
1.13882 0.5 -0.578501 0.00251103
1.13882 0.5 0.578501 0.00251287
0.67013 0.5 -1.0875 0.00802853
0.67013 0.5 1.0875 0.00760674
1.27472 0.5 0.0918957 0.00163631
1.27472 0.5 -0.0918957 0.00161798
1.25401 0.5 -0.249198 0.00173961
1.25401 0.5 0.249198 0.00174933
1.16179 0.5 -0.535283 0.00235428
1.16179 0.5 0.535283 0.00235146
1.20942 0.5 0.419438 0.00202434
1.20942 0.5 -0.419438 0.00201899
0 0.5 -1.28118 0.012102
0 0.5 1.28118 0.0118623
0.0124871 0.5 -1.28118 0.0129283
0.0124871 0.5 1.28118 0.0126668
1.27472 0.5 -0.15316 0.00163232
1.27472 0.5 0.15316 0.00164057
0.151149 0.5 -1.275 0.0161347
0.151149 0.5 1.275 0.0156717
1.02709 0.5 -0.773275 0.00360431
1.02709 0.5 0.773275 0.00347704