# nutMean  POINT_DATA 91129
# x  y  z  nutMean
0 0 0 5.04007e-06
0 0.00368111 0 1.83687e-05
0 0.00749587 0 7.24557e-05
0 0.0114491 0 0.000268904
0 0.0155459 0 0.000702996
0 0.0197915 0 0.00177805
0 0.0241911 0 0.00266502
0 0.0287506 0 0.00300742
0 0.0334755 0 0.00343256
0 0.038372 0 0.00372808
0 0.0434463 0 0.00393809
0 0.0487048 0 0.00410148
0 0.0541543 0 0.00424135
0 0.0598016 0 0.00437336
0 0.0656539 0 0.00450832
0 0.0717187 0 0.00464888
0.0757758 0.00184056 0 8.94164e-06
0.0757758 0.00558849 3.46945e-18 1.31483e-05
0.0757758 0.0094725 0 6.2561e-05
0.0757758 0.0134975 0 0.000294377
0.0757758 0.0176687 0 0.000843346
0 0.0780037 0 0.00479331
0.0757758 0.0219913 0 0.00170436
0.0757758 0.0264709 0 0.00288506
0.0757758 0.031113 3.46945e-18 0.00435977
0.0757758 0.0359238 -3.46945e-18 0.00607607
0 0.0845169 0 0.00494109
0.0757758 0.0409092 0 0.00796945
0.0757758 0.0460756 0 0.009971
0 0.0912666 0 0.00509223
0.0757758 0.0514296 3.46945e-18 0.0120122
0.0757758 0.0569779 0 0.0140224
0 0.0982613 0 0.00524575
0.0757758 0.0627277 0 0.0149987
0.0757758 0.0686863 0 0.0154683
0 0.10551 0 0.00539977
0.0757758 0.0748612 3.46945e-18 0.01599
0.0757758 0.0812603 3.46945e-18 0.0165699
0 0.113022 0 0.00555207
0.0757758 0.0878917 0 0.0172154
0 0.120806 0 0.00570111
0.0757758 0.0947639 -3.46945e-18 0.0179425
0.0757758 0.101886 -3.46945e-18 0.0187823
0 0.128874 0 0.00585396
0.0757758 0.109266 0 0.0197904
0 0.137234 0 0.00603029
0.0757758 0.116914 -3.46945e-18 0.0210442
0 0.145897 0 0.0062437
0.0757758 0.12484 0 0.0226303
0.151552 0 0 0
0.151552 0.00368111 0 7.36396e-06
0.151552 0.00749587 0 2.52348e-05
0.151552 0.0114491 0 0.000111473
0.151552 0.0155459 0 0.000351181
0.151552 0.0197915 0 0.000799454
0.0757758 0.133054 3.46945e-18 0.0246064
0.151552 0.0241911 0 0.00147111
0.151552 0.0287506 0 0.00236661
0 0.154876 0 0.00648857
0.151552 0.0334755 0 0.00346932
0.151552 0.038372 0 0.00475146
0.151552 0.0434463 0 0.00617917
0.151552 0.0487048 0 0.00771607
0.0757758 0.141566 0 0.0267937
0.151552 0.0541543 0 0.00932423
0.151552 0.0598016 0 0.0107409
0 0.16418 0 0.00675472
0.151552 0.0656539 0 0.0118463
0.151552 0.0717187 0 0.0128939
0.0757758 0.150387 0 0.0286794
0.151552 0.0780037 0 0.0140091
0.151552 0.0845169 0 0.0151827
0 0.173822 0 0.00703857
0.0757758 0.159528 3.46945e-18 0.0299458
0.151552 0.0912666 0 0.0163706
0.151552 0.0982613 0 0.0175168
0 0.183814 0 0.00733876
0.151552 0.10551 0 0.0185459
0.0757758 0.169001 0 0.0303639
0.151552 0.113022 0 0.0194998
0.151552 0.120806 0 0.0205411
0 0.194169 0 0.00765263
0.0757758 0.178818 0 0.0299244
0.151552 0.128874 0 0.0218869
0.0757758 0.188991 3.46945e-18 0.0288358
0.151552 0.137234 0 0.0235957
0 0.2049 0 0.00797502
0.151552 0.145897 0 0.0253868
0.0757758 0.199534 -3.46945e-18 0.0273919
0 0.21602 0 0.00829764
0.151552 0.154876 0 0.0269368
0.219992 0.00184056 -3.46945e-18 2.53095e-06
0.219992 0.00558849 0 5.40127e-06
0.219992 0.0094725 0 2.17707e-05
0.219992 0.0134975 0 7.74919e-05
0.219992 0.0176687 0 0.000222997
0.219992 0.0219913 3.46945e-18 0.000500094
0.219992 0.0264709 3.46945e-18 0.000921632
0.219992 0.031113 0 0.00149313
0.219992 0.0359238 0 0.00221725
0.151552 0.16418 0 0.0280267
0.0757758 0.21046 0 0.0258018
0.219992 0.0409092 0 0.00309238
0.219992 0.0460756 0 0.00411303
0.219992 0.0514296 0 0.00527168
0.219992 0.0569779 3.46945e-18 0.00655847
0 0.227544 0 0.00864448
0.219992 0.0627277 0 0.00796354
0.219992 0.0686863 0 0.00947539
0.151552 0.173822 0 0.0285694
0.219992 0.0748612 -3.46945e-18 0.0110778
0.0757758 0.221782 0 0.0241478
0.219992 0.0812603 0 0.0127478
0.219992 0.0878917 0 0.0144603
0.151552 0.183814 0 0.0286114
7.47804e-17 0.239487 0 0.00908795
0.219992 0.0947639 0 0.0160501
0.219992 0.101886 0 0.0174224
0.0757758 0.233515 0 0.0228531
0.219992 0.109266 0 0.0183023
0.151552 0.194169 0 0.0282828
0.219992 0.116914 -3.46945e-18 0.0190033
0 0.251863 0 0.00962412
0.219992 0.12484 0 0.0196858
0.151552 0.2049 0 0.0277165
0.0757758 0.245675 3.46945e-18 0.0223679
0.219992 0.133054 0 0.0208911
0.219992 0.141566 0 0.0224149
0.151552 0.21602 0 0.0269927
0 0.264688 0 0.0102036
0.219992 0.150387 0 0.0240198
0.0757758 0.258276 3.46945e-18 0.0221036
0.219992 0.159528 0 0.0254667
0.151552 0.227544 0 0.0262392
0.219992 0.169001 0 0.026657
0 0.27798 0 0.0108266
0.0757758 0.271334 0 0.021975
0.151552 0.239487 3.70074e-18 0.0256702
0.219992 0.178818 0 0.0275737
0.288433 0 0 0
0.288433 0.00368111 0 3.04944e-06
0.288433 0.00749587 0 1.14108e-05
0.288433 0.0114491 0 3.94369e-05
0.288433 0.0155459 3.70074e-18 0.000113357
0.288433 0.0197915 0 0.000272696
0.288433 0.0241911 3.70074e-18 0.00054335
0.288433 0.0287506 0 0.00093531
0.219992 0.188991 0 0.0282295
0.288433 0.0334755 0 0.00145612
0.288433 0.038372 0 0.00210775
0.288433 0.0434463 0 0.00288923
7.47804e-17 0.291753 0 0.0114953
0.288433 0.0487048 0 0.00379723
0.288433 0.0541543 0 0.00482631
0.151552 0.251863 0 0.0252631
0.288433 0.0598016 3.70074e-18 0.00596914
0.0757758 0.284866 -3.46945e-18 0.0219991
0.288433 0.0656539 3.70074e-18 0.00721635
0.219992 0.199534 0 0.0286481
0.288433 0.0717187 0 0.00855491
0.288433 0.0780037 0 0.00996589
0.288433 0.0845169 0 0.0114199
0.288433 0.0912666 0 0.0125749
0.219992 0.21046 0 0.0288525
0.288433 0.0982613 0 0.0133168
0.151552 0.264688 3.70074e-18 0.0248683
0 0.306027 0 0.0122263
0.288433 0.10551 0 0.0138814
0.0757758 0.29889 -3.46945e-18 0.0221564
0.288433 0.113022 0 0.0143643
0.219992 0.221782 0 0.0288595
0.288433 0.120806 0 0.0148312
0.288433 0.128874 0 0.0153851
0.151552 0.27798 0 0.0245725
0.288433 0.137234 0 0.0161082
0 0.320819 0 0.0131656
0.219992 0.233515 0 0.0286767
0.0757758 0.313423 0 0.0225064
0.288433 0.145897 0 0.0169302
0.288433 0.154876 0 0.0177437
0.151552 0.291753 0 0.0243941
0.219992 0.245675 0 0.0283148
0.288433 0.16418 0 0.0184601
0 0.336148 0 0.0146863
0.288433 0.173822 0 0.0190463
0.0757758 0.328484 0 0.0237471
0.219992 0.258276 0 0.027803
0.151552 0.306027 0 0.0242232
0.288433 0.183814 0 0.0194992
0.288433 0.194169 0 0.019827
0.219992 0.271334 -3.46945e-18 0.027159
0.350249 0.00184056 0 9.08645e-07
0.350249 0.00558849 0 3.49172e-06
0.350249 0.0094725 0 1.52996e-05
0.350249 0.0134975 0 4.46851e-05
0.350249 0.0176687 3.46945e-18 0.00011368
0.350249 0.0219913 0 0.000267077
0.350249 0.0264709 -3.46945e-18 0.000509226
0.350249 0.031113 -3.46945e-18 0.000857254
0 0.352034 0 0.0160381
0.350249 0.0359238 3.46945e-18 0.0013155
0.0757758 0.344091 0 0.027131
0.350249 0.0409092 0 0.00188627
0.350249 0.0460756 0 0.0025701
0.288433 0.2049 0 0.0200411
0.350249 0.0514296 0 0.00336565
0.151552 0.320819 0 0.0242266
0.350249 0.0569779 3.46945e-18 0.00426944
0.350249 0.0627277 0 0.00527493
0.350249 0.0686863 0 0.00637238
0.350249 0.0748612 3.46945e-18 0.00754697
0.350249 0.0812603 0 0.00877694
0.219992 0.284866 0 0.0267617
0.288433 0.21602 0 0.0201506
0.350249 0.0878917 0 0.0100151
0.350249 0.0947639 0 0.0101674
0.350249 0.101886 0 0.0101292
0.350249 0.109266 3.46945e-18 0.010256
0.288433 0.227544 0 0.0201604
0.0757758 0.360265 0 0.0271436
0 0.368496 0 0.0162273
0.151552 0.336148 0 0.0249248
0.350249 0.116914 3.46945e-18 0.010525
0.219992 0.29889 0 0.0263052
0.370854 0.0241911 0 0.000395046
0.350249 0.12484 0 0.010773
0.350249 0.133054 3.46945e-18 0.0109097
0.288433 0.239487 -9.25186e-19 0.0200732
0.350249 0.141566 -3.46945e-18 0.0110305
0.350249 0.150387 0 0.0111776
0.288433 0.251863 0 0.0198969
0.219992 0.313423 0 0.0256357
0.151552 0.352034 0 0.0253148
0.0757758 0.377026 -3.46945e-18 0.0249944
0.350249 0.159528 3.46945e-18 0.0113367
0 0.385557 0 0.0156387
0.350249 0.169001 3.46945e-18 0.0114941
0.288433 0.264688 0 0.0196401
0.350249 0.178818 0 0.0116428
0.219992 0.328484 0 0.0248492
0.350249 0.188991 0 0.0117814
0.151552 0.368496 0 0.0243302
0.288433 0.27798 3.70074e-18 0.0193956
0.0757758 0.394396 -3.46945e-18 0.0226868
0.350249 0.199534 3.46945e-18 0.01191
7.47804e-17 0.403236 0 0.0151756
0.219992 0.344091 0 0.0240506
0.350249 0.21046 0 0.0120284
0.288433 0.291753 0 0.0191805
0.412065 9.0819e-19 0 2.43811e-22
0.412065 0.00368111 -2.31296e-18 2.08265e-06
0.412065 0.00749587 -2.31296e-18 9.31085e-06
0.412065 0.0114491 -2.31296e-18 2.77857e-05
0.412065 0.0155459 -2.31296e-18 6.86696e-05
0.412065 0.0197915 0 0.000157926
0.412065 0.0241911 0 0.000320894
0.412065 0.0264709 0 0.000445302
0.412065 0.0287506 -2.31296e-18 0.000569709
0.412065 0.0334755 -2.31296e-18 0.000912703
0.412065 0.038372 -2.31296e-18 0.00135572
0.151552 0.385557 0 0.022729
0.412065 0.0434463 0 0.00190036
0.350249 0.221782 0 0.0121355
0.412065 0.0487048 0 0.0025464
0.412065 0.0541543 0 0.00329158
0.412065 0.0569779 0 0.00371123
0.412065 0.0598016 -2.31296e-18 0.00413087
0.412065 0.0656539 -2.31296e-18 0.00505588
0.412065 0.0717187 -2.31296e-18 0.00605367
0.0757758 0.412397 0 0.0220311
0.412065 0.0780037 -2.31296e-18 0.00706901
0.288433 0.306027 0 0.0188865
0.412065 0.0845169 -2.31296e-18 0.00790398
0.350249 0.233515 0 0.0122285
0 0.421557 0 0.0151686
0.412065 0.0912666 -2.31296e-18 0.00829704
0.219992 0.360265 -3.46945e-18 0.0232116
0.412065 0.0982613 0 0.00835793
0.412065 0.10551 0 0.0084053
0.412065 0.113022 -2.31296e-18 0.00853137
0.350249 0.245675 3.46945e-18 0.0123039
0.412065 0.120806 0 0.00868938
0.151552 0.403236 0 0.0214772
0.288433 0.320819 0 0.0185021
0.412065 0.128874 -2.31296e-18 0.00881557
0.412065 0.137234 0 0.0089114
0.350249 0.258276 3.46945e-18 0.0123583
0.219992 0.377026 0 0.0222355
0.412065 0.145897 -2.31296e-18 0.00901072
0.0757758 0.431051 0 0.0220008
0.412065 0.154876 -2.31296e-18 0.00911927
0 0.440544 0 0.0153029
0.288433 0.336148 0 0.018078
0.350249 0.271334 0 0.0123853
0.412065 0.16418 -2.31296e-18 0.00922953
0.412065 0.173822 -2.31296e-18 0.00933646
0.151552 0.421557 0 0.0208267
0.412065 0.183814 -2.31296e-18 0.00943792
0.350249 0.284866 0 0.0123804
0.219992 0.394396 0 0.0211681
0.288433 0.352034 3.70074e-18 0.0176345
0.412065 0.194169 0 0.00953348
0.0757758 0.450382 0 0.0220537
0.412065 0.2049 -2.31296e-18 0.00962303
0 0.46022 0 0.0154527
0.350249 0.29889 0 0.0123473
0.412065 0.21602 0 0.00970615
0.151552 0.440544 0 0.0204272
0.219992 0.412397 3.46945e-18 0.0201564
0.467897 0.00184056 -3.46945e-18 5.95985e-07
0.467897 0.00558849 0 3.3507e-06
0.288433 0.368496 0 0.0171389
0.467897 0.0094725 0 1.51135e-05
0.467897 0.0134975 3.46945e-18 3.6353e-05
0.467897 0.0176687 3.46945e-18 8.14275e-05
0.467897 0.0219913 -3.46945e-18 0.000174046
0.467897 0.0264709 -3.46945e-18 0.000342609
0.467897 0.031113 3.46945e-18 0.000585584
0.467897 0.0359238 0 0.000916692
0.467897 0.038372 0 0.00117228
0.467897 0.0409092 0 0.0013386
0.350249 0.313423 0 0.0122905
0.467897 0.0460756 0 0.00185218
0.467897 0.0514296 3.46945e-18 0.00245645
0.412065 0.227544 -2.31296e-18 0.00978174
0.467897 0.0569779 0 0.0031481
0.467897 0.0627277 -3.46945e-18 0.00392042
0.467897 0.0686863 0 0.00476281
0.467897 0.0748612 3.46945e-18 0.00565878
0.467897 0.0812603 3.46945e-18 0.0064456
0.467897 0.0878917 3.46945e-18 0.00658607
0.0757758 0.470415 3.46945e-18 0.0221714
0.412065 0.239487 -2.31296e-18 0.00984807
0.467897 0.0947639 0 0.00666932
0.467897 0.101886 3.46945e-18 0.00671498
0.350249 0.328484 0 0.0122147
0.467897 0.109266 3.46945e-18 0.00676978
0 0.48061 0 0.0155953
0.288433 0.385557 0 0.0165746
0.467897 0.116914 3.46945e-18 0.00683338
0.412065 0.251863 -2.31296e-18 0.00990331
0.219992 0.431051 0 0.019299
0.467897 0.12484 0 0.00689872
0.151552 0.46022 0 0.020134
0.467897 0.133054 0 0.00696264
0.467897 0.141566 -3.46945e-18 0.00702906
0.412065 0.264688 -2.31296e-18 0.00994512
0.350249 0.344091 0 0.0121252
0.467897 0.150387 0 0.00709676
0.467897 0.154876 0 0.00763636
0.467897 0.159528 0 0.00716312
0.288433 0.403236 0 0.0159877
0.0757758 0.491176 3.46945e-18 0.0222555
0.412065 0.27798 -2.31296e-18 0.00997132
0.467897 0.169001 0 0.00722794
0.467897 0.178818 -3.46945e-18 0.00729105
0.219992 0.450382 3.46945e-18 0.018598
6.73024e-17 0.501741 3.70074e-18 0.0156833
0.350249 0.360265 0 0.0120226
0.151552 0.48061 0 0.0198961
0.467897 0.188991 0 0.0073522
0.412065 0.291753 0 0.0099819
0.467897 0.199534 0 0.00741124
0.288433 0.421557 0 0.0154433
0.467897 0.21046 3.46945e-18 0.00746798
0.412065 0.306027 0 0.00997801
0.350249 0.377026 0 0.0118974
0.467897 0.221782 0 0.00752216
0.0757758 0.51269 0 0.0222234
0.219992 0.470415 0 0.0180128
0.467897 0.227544 0 0.00814203
0.412065 0.320819 -2.31296e-18 0.00996083
0.467897 0.233515 0 0.00757341
6.73024e-17 0.523639 3.70074e-18 0.0156993
0.523729 0 0 0
0.523729 0.00368111 0 1.91446e-06
0.523729 0.00749587 -2.31296e-18 9.61646e-06
0.523729 0.0114491 0 2.60318e-05
0.523729 0.0155459 0 5.56033e-05
0.523729 0.0197915 -2.31296e-18 0.000112809
0.151552 0.501741 0 0.0196514
0.523729 0.0241911 0 0.000224634
0.523729 0.0287506 0 0.000404139
0.523729 0.0334755 0 0.000655366
0.523729 0.038372 0 0.000988848
0.523729 0.0434463 0 0.00140647
0.523729 0.0487048 0 0.00190802
0.523729 0.0541543 0 0.00249108
0.288433 0.440544 0 0.014975
0.523729 0.0598016 0 0.00315035
0.350249 0.394396 0 0.0117419
0.523729 0.0656539 0 0.00387671
0.467897 0.245675 3.46945e-18 0.00762136
0.523729 0.0717187 0 0.00465451
0.523729 0.0780037 0 0.00529782
0.523729 0.0845169 0 0.00559471
0.523729 0.0912666 0 0.00568612
0.412065 0.336148 0 0.00993206
0.523729 0.0982613 0 0.00575272
0.523729 0.10551 -2.31296e-18 0.00580954
0.467897 0.258276 3.46945e-18 0.00766575
0.523729 0.113022 0 0.00586825
0.523729 0.120806 0 0.00592748
0.219992 0.491176 3.46945e-18 0.0174957
0.523729 0.12484 0 0.00595626
0.523729 0.128874 -2.31296e-18 0.00598503
0.0757758 0.534985 -3.46945e-18 0.0221036
0.467897 0.271334 0 0.00770688
0.350249 0.412397 3.46945e-18 0.0115623
0.523729 0.137234 0 0.00604148
0.412065 0.352034 -2.31296e-18 0.00989273
0.288433 0.46022 0 0.0145808
0.523729 0.145897 0 0.00609786
0.151552 0.523639 0 0.0193792
0.523729 0.154876 0 0.00615345
0 0.546332 0 0.0156592
0.523729 0.159528 0 0.00618058
0.467897 0.284866 3.46945e-18 0.00774617
0.523729 0.16418 -2.31296e-18 0.0062077
0.523729 0.173822 0 0.00626059
0.412065 0.368496 0 0.00984059
0.523729 0.183814 0 0.00631206
0.467897 0.29889 -3.46945e-18 0.00778285
0.350249 0.431051 0 0.0113764
0.219992 0.51269 3.46945e-18 0.0170224
0.523729 0.194169 0 0.00636203
0.288433 0.48061 0 0.0142422
0.523729 0.2049 0 0.00641045
0.467897 0.313423 0 0.0078146
0.0757758 0.55809 0 0.0219254
0.412065 0.385557 0 0.00977133
0.523729 0.21602 0 0.00645725
0.151552 0.546332 0 0.0190936
0 0.569849 0 0.0155768
0.350249 0.450382 0 0.0112018
0.523729 0.227544 0 0.00650232
0.467897 0.328484 0 0.00783974
0.523729 0.231525 0 0.00651673
0.574156 0.00184056 0 4.33037e-07
0.574156 0.00558849 0 3.28592e-06
0.574156 0.0094725 0 1.66657e-05
0.574156 0.0134975 0 3.59566e-05
0.574156 0.0176687 0 6.91086e-05
0.574156 0.0219913 3.46945e-18 0.000128614
0.574156 0.0264709 0 0.000257692
0.574156 0.031113 0 0.000438543
0.574156 0.0359238 3.46945e-18 0.000693215
0.574156 0.0409092 -3.46945e-18 0.0010251
0.523729 0.239487 3.70074e-18 0.00654554
0.574156 0.0460756 3.46945e-18 0.0014348
0.574156 0.0514296 0 0.00192095
0.412065 0.403236 0 0.00968429
0.574156 0.0569779 0 0.00247965
0.574156 0.0627277 0 0.00310356
0.574156 0.0686863 0 0.00378098
0.219992 0.534985 0 0.0165883
0.288433 0.501741 0 0.0139408
0.574156 0.0748612 0 0.00448838
0.574156 0.0812603 0 0.00469733
0.467897 0.344091 3.46945e-18 0.00785712
0.574156 0.0878917 0 0.00477045
0.523729 0.251863 0 0.00658682
0.574156 0.0947639 -3.46945e-18 0.00484193
0.574156 0.101886 0 0.0049076
0.574156 0.109266 3.46945e-18 0.00496789
0.574156 0.116914 -3.46945e-18 0.00502405
0.412065 0.416977 0 0.00961026
0.350249 0.470415 0 0.011049
0.523729 0.264688 0 0.00662625
0.0757758 0.582034 0 0.0217095
0.574156 0.12484 0 0.00507653
0.574156 0.133054 0 0.00512592
0.412065 0.421557 -2.31296e-18 0.00958558
0.151552 0.569849 0 0.0188075
0.467897 0.360265 0 0.00786643
0.574156 0.141566 -3.46945e-18 0.0051731
0.523729 0.27798 0 0.00666434
0.574156 0.150387 -3.46945e-18 0.00521865
0 0.594219 0 0.0154625
0.574156 0.159528 0 0.00526286
0.574156 0.16418 0 0.00546279
0.288433 0.523639 9.24446e-33 0.0136671
0.574156 0.169001 -3.46945e-18 0.0053059
0.523729 0.291753 0 0.00670117
0.219992 0.55809 -3.46945e-18 0.0161979
0.467897 0.377026 0 0.0078676
0.574156 0.178818 -3.46945e-18 0.00534788
0.412065 0.440544 -2.31296e-18 0.00948519
0.350249 0.491176 3.46945e-18 0.0109185
0.574156 0.188991 0 0.00538884
0.523729 0.306027 0 0.00673571
0.574156 0.199534 0 0.00542884
0.574156 0.21046 0 0.00546793
0.0757758 0.606847 0 0.0214699
0.467897 0.394396 3.46945e-18 0.00786002
0.151552 0.594219 0 0.0185285
0.523729 0.320819 0 0.00676657
0.574156 0.221782 -3.46945e-18 0.00550619
0.412065 0.46022 0 0.00939212
0.288433 0.546332 0 0.0134195
0 0.619475 0 0.0153245
0.574156 0.233515 0 0.00554371
0.350249 0.51269 3.46945e-18 0.010805
0.219992 0.582034 0 0.0158509
0.523729 0.336148 0 0.00679264
0.467897 0.412397 0 0.00784321
0.574156 0.245675 3.46945e-18 0.00558061
0.624584 0 0 0
0.624584 0.00368111 0 1.82932e-06
0.624584 0.00749587 0 1.05257e-05
0.624584 0.0114491 0 2.76046e-05
0.624584 0.0155459 0 5.22248e-05
0.624584 0.0197915 0 9.27496e-05
0.624584 0.0241911 -2.31296e-18 0.000172594
0.624584 0.0287506 0 0.000309565
0.624584 0.0334755 0 0.000506413
0.624584 0.038372 0 0.000770448
0.624584 0.0434463 -2.31296e-18 0.00110705
0.624584 0.0487048 0 0.00151584
0.624584 0.0541543 0 0.00199396
0.624584 0.0598016 0 0.00253547
0.624584 0.0656539 0 0.0031305
0.624584 0.0717187 0 0.00372461
0.624584 0.0780037 0 0.00408343
0.574156 0.258276 0 0.00561703
0.624584 0.0845169 0 0.00419456
0.523729 0.352034 0 0.00681328
0.624584 0.0912666 0 0.00426697
0.624584 0.0982613 0 0.00433404
0.412065 0.48061 0 0.00931124
0.624584 0.10551 0 0.00439454
0.624584 0.113022 -2.31296e-18 0.00444993
0.574156 0.271334 0 0.00565317
0.624584 0.120806 0 0.00450126
0.467897 0.431051 0 0.00781877
0.0757758 0.632561 3.46945e-18 0.0212152
0.624584 0.128874 0 0.00454912
0.151552 0.619475 0 0.0182604
0.288433 0.569849 0 0.0131985
0.350249 0.534985 0 0.0107045
0.624584 0.137234 -2.31296e-18 0.00459417
0.523729 0.368496 0 0.00682828
0.574156 0.284866 -3.46945e-18 0.00568913
0.624584 0.145897 0 0.00463705
0.467897 0.440544 0 0.00815782
0.624584 0.154876 0 0.00467818
0.219992 0.606847 0 0.0155445
0 0.645647 0 0.0151688
0.624584 0.16418 0 0.00471787
0.574156 0.29889 0 0.00572457
0.624584 0.173822 0 0.00475634
0.412065 0.501741 0 0.00924263
0.467897 0.450382 0 0.00779078
0.523729 0.385557 0 0.00683745
0.624584 0.183814 0 0.00479371
0.624584 0.194169 0 0.00483009
0.574156 0.313423 3.46945e-18 0.00575871
0.624584 0.2049 0 0.0048656
0.350249 0.55809 3.46945e-18 0.0106149
0.288433 0.594219 0 0.0130032
0.624584 0.21602 0 0.00490034
0.523729 0.403236 0 0.00684045
0.574156 0.328484 -3.46945e-18 0.00579068
0.151552 0.645647 0 0.0180045
0.467897 0.470415 0 0.007764
0.0757758 0.659208 3.46945e-18 0.0209513
0.624584 0.227544 0 0.00493442
0.412065 0.523639 0 0.00918436
0.523729 0.41545 0 0.00683853
0.624584 0.239487 3.70074e-18 0.00496799
0.574156 0.344091 0 0.00581972
0.219992 0.632561 -3.46945e-18 0.015275
0.67013 0.00184056 3.46945e-18 3.18597e-07
0.67013 0.00558849 -3.46945e-18 3.2835e-06
0.67013 0.0094725 3.46945e-18 1.88011e-05
0.67013 0.0134975 -3.46945e-18 3.88375e-05
0.67013 0.0176687 0 6.50353e-05
0.67013 0.0219913 0 0.00010899
0.67013 0.0264709 3.46945e-18 0.0001976
0.67013 0.031113 0 0.000349144
0.67013 0.0359238 -3.46945e-18 0.000552029
0.67013 0.0409092 0 0.000822305
0.67013 0.0460756 0 0.00116103
0.67013 0.0514296 -3.46945e-18 0.00156642
0.523729 0.421557 0 0.00683757
0.67013 0.0569779 0 0.00203404
0 0.67277 0 0.015
0.67013 0.0627277 3.46945e-18 0.00255595
0.624584 0.251863 0 0.00500117
0.67013 0.0686863 0 0.00311961
0.67013 0.0748612 -3.46945e-18 0.00355957
0.67013 0.0812603 0 0.00365062
0.67013 0.0878917 0 0.00372566
0.67013 0.0947639 0 0.00379565
0.574156 0.360265 3.46945e-18 0.00584546
0.67013 0.101886 3.46945e-18 0.00385696
0.523729 0.431051 0 0.00683401
0.624584 0.264688 0 0.00503412
0.467897 0.491176 0 0.0077419
0.67013 0.109266 3.46945e-18 0.00391197
0.350249 0.582034 0 0.0105357
0.67013 0.116914 -3.46945e-18 0.00396239
0.67013 0.12484 0 0.00400897
0.67013 0.133054 -3.46945e-18 0.00405233
0.288433 0.619475 0 0.0128324
0.624584 0.27798 0 0.00506693
0.412065 0.546332 0 0.00913477
0.523729 0.440544 0 0.00683045
0.67013 0.141566 0 0.004093
0.685312 0.0241911 0 0.000150959
0.685312 0.0434463 0 0.000972016
0.67013 0.150387 0 0.00413148
0.574156 0.377026 0 0.00586783
0.67013 0.159528 0 0.0041682
0.624584 0.291753 0 0.00509953
0.151552 0.67277 0 0.0177612
0.0757758 0.686823 0 0.0206825
0.67013 0.169001 -3.46945e-18 0.00420346
0.67013 0.178818 0 0.00423749
0.467897 0.51269 3.46945e-18 0.00772585
0.685312 0.113022 0 0.00386819
0.219992 0.659208 0 0.0150383
0.624584 0.306027 0 0.00513153
0.67013 0.188991 0 0.00427047
0.574156 0.394396 -3.46945e-18 0.00588678
0.523729 0.46022 0 0.0068219
0.685312 0.137234 0 0.00400367
0.67013 0.199534 3.46945e-18 0.00430254
0.350249 0.606847 3.46945e-18 0.0104676
0 0.700877 0 0.0148223
0.624584 0.320819 0 0.00516238
0.67013 0.21046 -3.46945e-18 0.00433386
0.412065 0.569849 -2.31296e-18 0.00909299
0.67013 0.221782 0 0.00436458
0.574156 0.412397 -3.46945e-18 0.00590212
0.288433 0.645647 0 0.0126844
0.624584 0.336148 0 0.00519152
0.67013 0.233515 -3.46945e-18 0.00439484
0.467897 0.534985 0 0.00771581
0.523729 0.48061 0 0.00681482
0.624584 0.344091 0 0.00520502
0.67013 0.245675 0 0.00442481
0.715676 4.54095e-19 -1.54074e-33 4.48724e-23
0.715676 0.00368111 0 1.78951e-06
0.715676 0.00749587 0 1.16805e-05
0.715676 0.0114491 -1.54074e-33 3.05764e-05
0.715676 0.0155459 0 5.32859e-05
0.715676 0.0197915 0 8.46078e-05
0.715676 0.0241911 0 0.000140141
0.715676 0.0287506 0 0.000247598
0.715676 0.0334755 0 0.000410262
0.715676 0.038372 0 0.000625264
0.624584 0.352034 -2.31296e-18 0.00521852
0.715676 0.0434463 0 0.0009045
0.151552 0.700877 0 0.0175304
0.715676 0.0487048 0 0.00124776
0.715676 0.0541543 0 0.00165189
0.574156 0.431051 -3.46945e-18 0.00591403
0.715676 0.0598016 0 0.00211052
0.67013 0.258276 0 0.00445463
0.715676 0.0656539 0 0.00261309
0.715676 0.0717187 0 0.00303976
0.0757758 0.715441 0 0.0204124
0.715676 0.0780037 0 0.00325065
0.715676 0.0845169 0 0.00333325
0.219992 0.686823 0 0.0148302
0.715676 0.0912666 0 0.00340512
0.715676 0.0982613 0 0.00346917
0.67013 0.271334 0 0.0044844
0.350249 0.632561 3.46945e-18 0.010411
0.412065 0.594219 -2.31296e-18 0.00905899
0.715676 0.10551 0 0.00352593
0.715676 0.113022 0 0.00357731
0.624584 0.368496 0 0.00524316
0.523729 0.501741 0 0.00681124
0.715676 0.120806 0 0.00362442
0.715676 0.128874 0 0.00366792
0.67013 0.284866 0 0.00451412
0.467897 0.55809 3.46945e-18 0.00771108
0.715676 0.137234 0 0.00370842
0.574156 0.450382 0 0.00592344
0 0.730005 0 0.0146391
0.715676 0.145897 0 0.00374643
0.288433 0.67277 0 0.0125573
0.715676 0.154876 0 0.0037824
0.67013 0.29889 3.46945e-18 0.00454367
0.624584 0.385557 0 0.00526538
0.715676 0.16418 0 0.00381668
0.715676 0.173822 0 0.00384954
0.715676 0.183814 0 0.0038812
0.67013 0.313423 0 0.00457281
0.523729 0.523639 0 0.00681207
0.715676 0.194169 0 0.00391184
0.574156 0.470415 3.46945e-18 0.00593199
0.624584 0.403236 0 0.0052851
0.743101 0.0241911 0 0.000133727
0.412065 0.619475 -2.31296e-18 0.0090332
0.715676 0.2049 0 0.00394162
0.151552 0.730005 0 0.0173121
0.67013 0.328484 0 0.00460118
0.350249 0.659208 -3.46945e-18 0.0103662
0.467897 0.582034 0 0.00771131
0.715676 0.21602 0 0.00397068
0.219992 0.715441 0 0.0146473
0.0757758 0.745098 3.46945e-18 0.020144
0.715676 0.227544 0 0.00399919
0.67013 0.344091 0 0.00462845
0.624584 0.421557 0 0.00530232
0.743101 0.128874 0 0.00346949
0.715676 0.239487 3.70074e-18 0.00402729
0.574156 0.491176 3.46945e-18 0.00594155
0.523729 0.546332 0 0.00681742
0.756814 0.00184056 0 2.31137e-07
0.756814 0.00558849 0 3.32622e-06
0.756814 0.0094725 0 2.12397e-05
0.756814 0.0134975 3.46945e-18 4.32299e-05
0.756814 0.0155459 0 5.49294e-05
0.756814 0.0176687 -3.46945e-18 6.58896e-05
0.756814 0.0219913 -3.46945e-18 9.87898e-05
0.756814 0.0264709 3.46945e-18 0.000156672
0.756814 0.031113 -3.46945e-18 0.000289894
0.756814 0.0359238 -3.46945e-18 0.000454542
0.288433 0.700877 0 0.0124491
0.756814 0.0409092 0 0.000679177
0.756814 0.0460756 -3.46945e-18 0.000965342
0.756814 0.0514296 -3.46945e-18 0.00131137
0.715676 0.251863 0 0.00405511
0.756814 0.0569779 0 0.0017125
0.756814 0.0627277 3.46945e-18 0.00216042
0.756814 0.0686863 0 0.00264177
0 0.76019 0 0.0144535
0.756814 0.0748612 0 0.00287189
0.67013 0.360265 0 0.00465434
0.756814 0.0812603 0 0.00296044
0.756814 0.0878917 0 0.00303626
0.756814 0.0947639 -3.46945e-18 0.00310293
0.715676 0.264688 0 0.00408276
0.756814 0.101886 -3.46945e-18 0.00316135
0.624584 0.440544 0 0.00531739
0.756814 0.109266 -3.46945e-18 0.00321381
0.756814 0.116914 -3.46945e-18 0.00326158
0.412065 0.645647 0 0.00901607
0.467897 0.606847 0 0.00771664
0.756814 0.120806 0 0.00332753
0.756814 0.12484 3.46945e-18 0.00330537
0.715676 0.27798 -1.54074e-33 0.0041103
0.756814 0.133054 3.46945e-18 0.00334581
0.67013 0.377026 3.46945e-18 0.00467875
0.756814 0.137234 0 0.00340994
0.574156 0.51269 0 0.00595362
0.756814 0.141566 0 0.00338349
0.685312 0.352034 0 0.00456785
0.743101 0.2049 0 0.00373729
0.350249 0.686823 0 0.0103331
0.756814 0.150387 0 0.00341887
0.756814 0.154876 0 0.00348205
0.715676 0.291753 -6.16298e-33 0.00413769
0.756814 0.159528 0 0.00345232
0.523729 0.569849 0 0.00682709
0.72743 0.264688 0 0.00399293
0.756814 0.16418 0 0.00351526
0.151552 0.76019 3.70074e-18 0.0171062
0.756814 0.169001 3.46945e-18 0.00348417
0.624584 0.46022 0 0.00533118
0.219992 0.745098 -3.46945e-18 0.0144867
0.67013 0.394396 0 0.00470162
0.756814 0.178818 0 0.00351466
0.715676 0.306027 0 0.00416482
0.0757758 0.775831 3.46945e-18 0.01988
0.756814 0.188991 0 0.00354399
0.756814 0.199534 -3.46945e-18 0.00357235
0.715676 0.320819 0 0.00419149
0.574156 0.534985 0 0.005969
0.288433 0.730005 0 0.0123582
0.756814 0.21046 0 0.0035999
0.467897 0.632561 0 0.00772753
0.67013 0.412397 0 0.00472291
0.624584 0.48061 0 0.00534495
0.756814 0.221782 3.46945e-18 0.00362678
0.412065 0.67277 -2.31296e-18 0.00900784
0.715676 0.336148 0 0.00421746
0 0.791472 0 0.0142684
0.756814 0.233515 0 0.00365314
0.523729 0.594219 0 0.00684106
0.624584 0.487654 0 0.00534997
0.756814 0.245675 0 0.00367913
0.350249 0.715441 3.46945e-18 0.0103113
0.67013 0.431051 -3.46945e-18 0.00474268
0.715676 0.352034 0 0.00424251
0.797951 9.0819e-19 0 6.56983e-23
0.797951 0.00368111 0 1.77572e-06
0.797951 0.00749587 0 1.29629e-05
0.797951 0.0114491 0 3.41528e-05
0.797951 0.0141803 0 4.90996e-05
0.797951 0.0155459 0 5.65729e-05
0.797951 0.0169611 0 6.49279e-05
0.797951 0.0197915 0 8.16379e-05
0.797951 0.0219913 0 0.000101268
0.797951 0.0241911 0 0.000120898
0.797951 0.0264709 0 0.000161802
0.797951 0.0287506 0 0.000202705
0.797951 0.0334755 0 0.000339147
0.797951 0.038372 0 0.000521911
0.797951 0.0434463 0 0.000757499
0.797951 0.0487048 0 0.00105116
0.756814 0.258276 0 0.00370484
0.797951 0.0541543 0 0.00139975
0.797951 0.0598016 0 0.00179655
0.797951 0.0656539 0 0.00222197
0.574156 0.55809 0 0.00598792
0.624584 0.501741 -2.05433e-33 0.00536002
0.797951 0.0717187 0 0.00252828
0.797951 0.0780037 0 0.00266289
0.797951 0.0845169 0 0.00274553
0.797951 0.0912666 0 0.00281706
0.797951 0.0982613 0 0.00287949
0.756814 0.271334 -3.46945e-18 0.00373035
0.797951 0.10551 0 0.00293488
0.715676 0.368496 0 0.00426647
0.151552 0.791472 0 0.0169132
0.797951 0.113022 0 0.00298495
0.219992 0.775831 3.46945e-18 0.0143462
0.797951 0.118212 0 0.00301541
0.770526 0.239487 0 0.00361262
0.797951 0.120806 9.25186e-19 0.00303064
0.67013 0.450382 3.46945e-18 0.00476123
0.797951 0.128874 -2.31296e-18 0.00307261
0.467897 0.659208 0 0.0077445
0.756814 0.284866 0 0.0037557
0.743101 0.320819 0 0.00397692
0.797951 0.137234 0 0.00311145
0.797951 0.141566 0 0.00312957
0.797951 0.145897 0 0.00314768
0.523729 0.619475 0 0.0068596
0.0757758 0.80768 0 0.019623
0.797951 0.150387 0 0.00316469
0.797951 0.154876 9.25186e-19 0.00318169
0.715676 0.385557 0 0.00428928
0.412065 0.700877 -2.31296e-18 0.0090086
0.288433 0.76019 0 0.0122831
0.756814 0.29889 -3.46945e-18 0.00378085
0.797951 0.16418 0 0.00321384
0.624584 0.523639 -1.54074e-33 0.00537736
0.797951 0.167394 0 0.00322403
0.797951 0.173822 0 0.0032444
0.574156 0.582034 0 0.00601041
0.67013 0.470415 0 0.0047792
0.797951 0.183814 0 0.0032736
0.756814 0.313423 0 0.00380573
0.797951 0.194169 0 0.00330162
0.715676 0.403236 -6.16298e-33 0.00431089
0.151552 0.80768 0 0.0168233
0.797951 0.197746 0 0.00331063
0.350249 0.745098 -3.46945e-18 0.0103005
0.797951 0.2049 0 0.00332865
0 0.823889 0 0.0140865
0.756814 0.328484 0 0.00383021
0.797951 0.21046 0 0.00334175
0.797951 0.21602 0 0.00335484
0.797951 0.223703 0 0.00337184
0.797951 0.227544 0 0.00338034
0.624584 0.546332 0 0.00539754
0.715676 0.421557 0 0.00433133
0.67013 0.491176 3.46945e-18 0.00479753
0.797951 0.231525 0 0.00338865
0.467897 0.686823 0 0.00776796
0.523729 0.645647 0 0.0068831
0.756814 0.344091 -3.46945e-18 0.00385413
0.822721 0.120806 0 0.00288825
0.797951 0.239487 0 0.00340528
0.822721 0.137234 0 0.00296897
0.835107 0.00184056 -3.46945e-18 1.64887e-07
0.835107 0.00558849 0 3.38107e-06
0.835107 0.0094725 3.46945e-18 2.38354e-05
0.835107 0.0134975 0 4.81097e-05
0.835107 0.0176687 0 6.8856e-05
0.835107 0.0219913 3.46945e-18 9.30899e-05
0.574156 0.606847 3.46945e-18 0.00603659
0.835107 0.0241911 0 0.000116099
0.835107 0.0264709 3.46945e-18 0.000135749
0.822721 0.145897 0 0.00300508
0.835107 0.031113 0 0.000230633
0.835107 0.0359238 0 0.000384939
0.835107 0.0409092 -3.46945e-18 0.000573633
0.835107 0.0460756 0 0.000818539
0.835107 0.0514296 -3.46945e-18 0.00111839
0.797951 0.251863 0 0.0034298
0.835107 0.0541543 0 0.00130034
0.835107 0.0569779 -3.46945e-18 0.00146832
0.219992 0.80768 -3.46945e-18 0.0142244
0.822721 0.154876 0 0.00303892
0.835107 0.0627277 -3.46945e-18 0.00185941
0.151552 0.823889 0 0.0167334
0.797951 0.255069 0 0.00343584
0.835107 0.0686863 3.46945e-18 0.00224478
0.756814 0.360265 3.46945e-18 0.00387735
0.412065 0.730005 0 0.00901836
0.835107 0.0748612 0 0.00237824