# nutMean  POINT_DATA 63140
# x  y  z  nutMean
0 0.1 0 0.00528269
0 0.1 -0.0179898 0.00529093
0 0.1 0.0179898 0.00527461
0.0363518 0.1 -0.0179898 0.0116236
0.0363518 0.1 0.0179898 0.0118556
0 0.1 -0.0570102 0.00531847
0 0.1 0.0570102 0.00527
0.0363518 0.1 0.0570102 0.011851
0.0363518 0.1 -0.0570102 0.0116512
0 0.1 -0.075 0.00533549
0 0.1 0.075 0.00527374
0.0757758 0.1 -0.0375 0.0183189
0.0757758 0.1 0.0375 0.018801
0 0.1 -0.0929898 0.00535339
0 0.1 0.0929898 0.00527749
0.0363518 0.1 -0.0929898 0.0111022
0.0363518 0.1 0.0929898 0.0115511
0 0.1 -0.13201 0.00538766
0 0.1 0.13201 0.00529302
0.0757758 0.1 -0.1125 0.01717
0.0757758 0.1 0.1125 0.0181861
0.0363518 0.1 -0.13201 0.0111365
0.0363518 0.1 0.13201 0.0115666
0 0.1 -0.15 0.00540193
0 0.1 0.15 0.00530315
0.150379 0.1 -4.33681e-19 0.0177935
0 0.1 -0.16799 0.00541789
0 0.1 0.16799 0.00531389
0.150379 0.1 -0.075 0.0164121
0.150379 0.1 0.075 0.0177238
0.0363518 0.1 -0.16799 0.0103879
0.0363518 0.1 0.16799 0.0107975
0.0757758 0.1 -0.1875 0.0156606
0.0757758 0.1 0.1875 0.0165952
0 0.1 -0.20701 0.00543884
0 0.1 0.20701 0.00533748
0.0363518 0.1 -0.20701 0.0104088
0.0363518 0.1 0.20701 0.0108211
0.150379 0.1 -0.15 0.0146914
0.150379 0.1 0.15 0.0161559
0.219992 0.1 -0.0375 0.0167352
0.219992 0.1 0.0375 0.0173828
0 0.1 -0.225 0.00544449
0 0.1 0.225 0.0053487
0 0.1 -0.24299 0.00545151
0 0.1 0.24299 0.00536132
0.0363518 0.1 0.24299 0.0100192
0.0363518 0.1 -0.24299 0.00997725
0.219992 0.1 -0.1125 0.0135228
0.219992 0.1 0.1125 0.0165871
0.150379 0.1 0.225 0.0143033
0.150379 0.1 -0.225 0.0138427
0.0757758 0.1 0.2625 0.0149715
0.0757758 0.1 -0.2625 0.0148135
0 0.1 -0.28201 0.00545535
0 0.1 0.28201 0.00537646
0.0363518 0.1 -0.28201 0.0099811
0.0363518 0.1 0.28201 0.0100343
0.287374 0.1 0 0.0135264
0.219992 0.1 -0.1875 0.0125381
0.219992 0.1 0.1875 0.0133421
0.287374 0.1 -0.075 0.0124641
0.287374 0.1 0.075 0.013516
0 0.1 -0.3 0.00545371
0 0.1 0.3 0.00537956
0 0.1 -0.31799 0.00545263
0 0.1 0.31799 0.00538393
0.0363518 0.1 -0.31799 0.0097141
0.0363518 0.1 0.31799 0.00955387
0.287374 0.1 -0.15 0.0113264
0.287374 0.1 0.15 0.0124461
0.150379 0.1 -0.3 0.0133952
0.150379 0.1 0.3 0.0133651
0.219992 0.1 -0.2625 0.0124686
0.219992 0.1 0.2625 0.0124095
0.0757758 0.1 -0.3375 0.0142673
0.0757758 0.1 0.3375 0.0140149
0.350249 0.1 -0.0375 0.0100626
0.350249 0.1 0.0375 0.010216
0 0.1 0.35701 0.00538314
0 0.1 -0.35701 0.00544483
0.0363518 0.1 -0.35701 0.00970629
0.0363518 0.1 0.35701 0.00955307
0.287374 0.1 -0.225 0.0110443
0.287374 0.1 0.225 0.0113055
0.350249 0.1 0.1125 0.0101598
0.350249 0.1 -0.1125 0.00975062
0 0.1 -0.375 0.00543945
0 0.1 0.375 0.00537951
0 0.1 -0.39299 0.00543444
0 0.1 0.39299 0.00537656
0.0363518 0.1 -0.39299 0.00941487
0.0363518 0.1 0.39299 0.00927979
0.350249 0.1 -0.1875 0.00963019
0.350249 0.1 0.1875 0.00989165
0.219992 0.1 -0.3375 0.0121232
0.219992 0.1 0.3375 0.0121498
0.150379 0.1 -0.375 0.0132686
0.150379 0.1 0.375 0.0129428
0.411108 0.1 -2.21177e-17 0.00838628
0.287374 0.1 -0.3 0.0109815
0.287374 0.1 0.3 0.0109729
0.411108 0.1 0.075 0.00842266
0.411108 0.1 -0.075 0.0082612
0.0757758 0.1 -0.4125 0.0136748
0.0757758 0.1 0.4125 0.0134577
0 0.1 -0.43201 0.00541488
0 0.1 0.43201 0.00536465
0.0363518 0.1 -0.43201 0.00939531
0.0363518 0.1 0.43201 0.00926788
0.411108 0.1 -0.15 0.00814951
0.411108 0.1 0.15 0.00835238
0.350249 0.1 -0.2625 0.00966536
0.350249 0.1 0.2625 0.00970078
0 0.1 -0.45 0.00540265
0 0.1 0.45 0.00535737
0.219992 0.1 -0.4125 0.0130621
0.219992 0.1 0.4125 0.0122073
0 0.1 -0.46799 0.00539034
0 0.1 0.46799 0.00535036
0.411108 0.1 -0.225 0.00814755
0.411108 0.1 0.225 0.00824859
0.467897 0.1 0.0375 0.00671603
0.467897 0.1 -0.0375 0.00668975
0.0363518 0.1 -0.46799 0.00912331
0.0363518 0.1 0.46799 0.00900771
0.287374 0.1 -0.375 0.0111965
0.287374 0.1 0.375 0.0109711
0.150379 0.1 -0.45 0.0134341
0.150379 0.1 0.45 0.0130981
0.467897 0.1 -0.1125 0.00667173
0.467897 0.1 0.1125 0.00673922
0.350249 0.1 0.3375 0.00974008
0.350249 0.1 -0.3375 0.00978112
0.0757758 0.1 -0.4875 0.0131216
0.0757758 0.1 0.4875 0.0129297
0.467897 0.1 -0.1875 0.00666712
0.467897 0.1 0.1875 0.00675099
0 0.1 -0.50701 0.00536348
0 0.1 0.50701 0.00532898
0.0363518 0.1 -0.50701 0.00909646
0.0363518 0.1 0.50701 0.00898633
0.411108 0.1 -0.3 0.00823491
0.411108 0.1 0.3 0.00823367
0.522864 0.1 -2.08167e-17 0.00577901
0 0.1 -0.525 0.00535122
0 0.1 0.525 0.00531684
0.522864 0.1 -0.075 0.00577405
0.522864 0.1 0.075 0.00579685
0.287374 0.1 -0.45 0.0117095
0.287374 0.1 0.45 0.0114741
0.219992 0.1 -0.4875 0.01387
0.219992 0.1 0.4875 0.0138016
0.467897 0.1 0.2625 0.00677266
0.467897 0.1 -0.2625 0.00674736
0.350249 0.1 -0.4125 0.00994489
0.350249 0.1 0.4125 0.00988991
0 0.1 -0.54299 0.0053383
0 0.1 0.54299 0.00530444
0.522864 0.1 0.15 0.00582136
0.522864 0.1 -0.15 0.00578592
0.0363518 0.1 -0.54299 0.00885551
0.0363518 0.1 0.54299 0.00875508
0.150379 0.1 -0.525 0.0133709
0.150379 0.1 0.525 0.0133654
0.411108 0.1 -0.375 0.0083748
0.411108 0.1 0.375 0.00833217
0.0757758 0.1 -0.5625 0.0126269
0.0757758 0.1 0.5625 0.0124577
0.522864 0.1 -0.225 0.00583572
0.522864 0.1 0.225 0.00585492
0.574156 0.1 -0.0375 0.00489023
0.574156 0.1 0.0375 0.00489019
0.467897 0.1 -0.3375 0.00686631
0.467897 0.1 0.3375 0.00683926
0 0.1 -0.58201 0.00531293
0 0.1 0.58201 0.00527912
0.0363518 0.1 -0.58201 0.00883014
0.0363518 0.1 0.58201 0.00872976
0.574156 0.1 -0.1125 0.00491326
0.574156 0.1 0.1125 0.00491271
0.287374 0.1 -0.525 0.0119732
0.287374 0.1 0.525 0.0120878
0 0.1 -0.6 0.00530192
0 0.1 0.6 0.00526808
0.350249 0.1 -0.4875 0.0101235
0.350249 0.1 0.4875 0.0101377
0.522864 0.1 0.3 0.00591294
0.522864 0.1 -0.3 0.00593148
0.219992 0.1 -0.5625 0.013817
0.219992 0.1 0.5625 0.0142127
0.574156 0.1 -0.1875 0.00495855
0.574156 0.1 0.1875 0.00495261
0.411108 0.1 -0.45 0.00855164
0.411108 0.1 0.45 0.00851639
0 0.1 -0.61799 0.00529011
0 0.1 0.61799 0.00525641
0.150379 0.1 -0.6 0.0130749
0.150379 0.1 0.6 0.0131909
0.0363518 0.1 -0.61799 0.00861929
0.0363518 0.1 0.61799 0.00852624
0.467897 0.1 0.4125 0.00697866
0.467897 0.1 -0.4125 0.00702919
0.623803 0.1 1.04083e-17 0.0043561
0.623803 0.1 -0.075 0.00437077
0.623803 0.1 0.075 0.0043647
0.574156 0.1 -0.2625 0.00503605
0.574156 0.1 0.2625 0.00501212
0.623803 0.1 -0.15 0.00440815
0.623803 0.1 0.15 0.0043947
0.0757758 0.1 0.6375 0.012039
0.0757758 0.1 -0.6375 0.0121926
0.522864 0.1 -0.375 0.00606421
0.522864 0.1 0.375 0.00601495
0 0.1 0.65701 0.00523426
0 0.1 -0.65701 0.0052675
0.0363518 0.1 0.65701 0.00850409
0.0363518 0.1 -0.65701 0.00859668
0.350249 0.1 -0.5625 0.0102507
0.350249 0.1 0.5625 0.0103749
0.623803 0.1 -0.225 0.004468
0.623803 0.1 0.225 0.00444406
0.287374 0.1 -0.6 0.0119632
0.287374 0.1 0.6 0.0122267
0.574156 0.1 -0.3375 0.00514304
0.574156 0.1 0.3375 0.00509543
0.411108 0.1 -0.525 0.00873083
0.411108 0.1 0.525 0.00875185
0.67013 0.1 -0.0375 0.00384389
0.67013 0.1 0.0375 0.00383755
0.219992 0.1 0.6375 0.0139679
0.219992 0.1 -0.6375 0.0135996
0 0.1 -0.675 0.00525778
0 0.1 0.675 0.00522504
0.467897 0.1 -0.4875 0.00723283
0.467897 0.1 0.4875 0.00718158
0.67013 0.1 -0.1125 0.00387291
0.67013 0.1 0.1125 0.00385597
0.522864 0.1 -0.45 0.00623597
0.522864 0.1 0.45 0.00617069
0.150379 0.1 0.675 0.0128524
0.150379 0.1 -0.675 0.0127671
0.623803 0.1 0.3 0.00451581
0.623803 0.1 -0.3 0.00455685
0 0.1 -0.69299 0.00524723
0 0.1 0.69299 0.00521508
0.0363518 0.1 0.69299 0.00833036
0.0363518 0.1 -0.69299 0.00841972
0.67013 0.1 0.1875 0.00389521
0.67013 0.1 -0.1875 0.00392487
0.574156 0.1 -0.4125 0.00528618
0.574156 0.1 0.4125 0.00521451
0.714971 0.1 -1.82146e-17 0.00348766
0.0757758 0.1 0.7125 0.0116805
0.0757758 0.1 -0.7125 0.0118279
0.714971 0.1 -0.075 0.00350573
0.714971 0.1 0.075 0.00349224
0.67013 0.1 -0.2625 0.00398961
0.67013 0.1 0.2625 0.00395399
0.411108 0.1 -0.6 0.0088842
0.411108 0.1 0.6 0.00897309
0.350249 0.1 -0.6375 0.0103403
0.350249 0.1 0.6375 0.0105167
0.623803 0.1 -0.375 0.00467789
0.623803 0.1 0.375 0.00461321
0.714971 0.1 0.15 0.00351886
0.714971 0.1 -0.15 0.00354521
0.467897 0.1 -0.5625 0.00743929
0.467897 0.1 0.5625 0.00743827
0 0.1 -0.73201 0.00522764
0 0.1 0.73201 0.00519663
0.0363518 0.1 -0.73201 0.00840013
0.0363518 0.1 0.73201 0.00831191
0.287374 0.1 0.675 0.0121414
0.287374 0.1 -0.675 0.011902
0.522864 0.1 -0.525 0.00643609
0.522864 0.1 0.525 0.00637731
0.219992 0.1 0.7125 0.0136305
0.219992 0.1 -0.7125 0.013376
0.714971 0.1 0.225 0.00356518
0.714971 0.1 -0.225 0.003604
0 0.1 0.75 0.00518912
0 0.1 -0.75 0.00521953
0.67013 0.1 -0.3375 0.00409609
0.67013 0.1 0.3375 0.00403935
0.574156 0.1 0.4875 0.00537769
0.574156 0.1 -0.4875 0.00546492
0.756814 0.1 -0.0375 0.00315003
0.756814 0.1 0.0375 0.00314174
0.150379 0.1 0.746002 0.0125253
0.150379 0.1 -0.75 0.0124972
0.756814 0.1 -0.1125 0.00317864
0.756814 0.1 0.1125 0.0031564
0 0.1 0.76799 0.00518083
0 0.1 -0.76799 0.00521058
0.0363518 0.1 0.76799 0.00816913
0.0363518 0.1 -0.76799 0.00825575
0.623803 0.1 -0.45 0.00482933
0.623803 0.1 0.45 0.00474405
0.714971 0.1 0.3 0.00363328
0.714971 0.1 -0.3 0.00368616
0.756814 0.1 -0.1875 0.00322703
0.756814 0.1 0.1875 0.00319067
0.67013 0.1 -0.4125 0.004224
0.67013 0.1 0.4125 0.00414149
0.411108 0.1 -0.675 0.00902583
0.411108 0.1 0.675 0.00914528
0.467897 0.1 -0.6375 0.00762567
0.467897 0.1 0.6375 0.00768609
0.0757758 0.1 -0.7875 0.0115303
0.0757758 0.1 0.7875 0.0113858
0.350249 0.1 0.7125 0.0105969
0.350249 0.1 -0.7125 0.010432
0.522864 0.1 -0.6 0.00664878
0.522864 0.1 0.6 0.00661461
0.797314 0.1 -2.86229e-17 0.00289612
0.287374 0.1 0.746002 0.0120539
0.797314 0.1 -0.075 0.00291382
0.797314 0.1 0.075 0.00289857
0.756814 0.1 0.2625 0.00324385
0.756814 0.1 -0.2625 0.00329706
0.287374 0.1 -0.75 0.01185
0.574156 0.1 -0.5625 0.00567703
0.574156 0.1 0.5625 0.00558373
0 0.1 0.80701 0.00516599
0 0.1 -0.80701 0.00519459
0.714971 0.1 -0.375 0.00379499
0.714971 0.1 0.375 0.00372338
0.0363518 0.1 -0.80701 0.00823977
0.0363518 0.1 0.80701 0.00815429
0.797314 0.1 -0.15 0.00295026
0.797314 0.1 0.15 0.00292095
0.623803 0.1 -0.525 0.00501263
0.623803 0.1 0.525 0.00491424
0.219992 0.1 0.7875 0.0133256
0.219992 0.1 -0.7875 0.0131756
0.149792 0.1 0.80701 0.0123175
0 0.1 0.825 0.00516025
0 0.1 -0.825 0.00518834
0.797314 0.1 -0.225 0.00300647
0.797314 0.1 0.225 0.00296154
0.756814 0.1 -0.3375 0.00338468
0.756814 0.1 0.3375 0.00331916
0.67013 0.1 -0.4875 0.00438066
0.67013 0.1 0.4875 0.00428126
0.835107 0.1 -0.0375 0.0026577
0.835107 0.1 0.0375 0.00264939
0.150379 0.1 -0.825 0.0122717
0.835107 0.1 -0.1125 0.0026833
0.835107 0.1 0.1125 0.00266116
0 0.1 0.84299 0.00515372
0 0.1 -0.84299 0.00518125
0.0363518 0.1 0.84299 0.00804148
0.0363518 0.1 -0.84299 0.00812597
0.714971 0.1 -0.45 0.00392955
0.714971 0.1 0.45 0.0038374
0.411108 0.1 0.746002 0.0093065
0.797314 0.1 -0.3 0.00307937
0.797314 0.1 0.3 0.00302121
0.467897 0.1 -0.7125 0.00781863
0.467897 0.1 0.7125 0.00790025
0.522864 0.1 0.675 0.00685674
0.522864 0.1 -0.675 0.00687475
0.411108 0.1 -0.75 0.0091884
0.835107 0.1 -0.1875 0.00272656
0.835107 0.1 0.1875 0.0026901
0.286844 0.1 0.80701 0.0119546
0.574156 0.1 0.6375 0.00582362
0.574156 0.1 -0.6375 0.00592081
0.350249 0.1 -0.7875 0.0105411
0.350249 0.1 0.7875 0.0106685
0.756814 0.1 0.4125 0.00341697
0.756814 0.1 -0.4125 0.00349857
0.623803 0.1 -0.6 0.00522728
0.623803 0.1 0.6 0.00511946
0.0757758 0.1 0.8625 0.0111529
0.0757758 0.1 -0.8625 0.0112956
0.871687 0.1 -1.73472e-17 0.00246788
0.287374 0.1 -0.825 0.0118207
0.871687 0.1 -0.075 0.002484
0.871687 0.1 0.075 0.0024691
0.67013 0.1 -0.5625 0.00456725
0.67013 0.1 0.5625 0.00445415
0.835107 0.1 0.2625 0.00273624
0.835107 0.1 -0.2625 0.00278992
0.797314 0.1 -0.375 0.00317335
0.797314 0.1 0.375 0.00310227
0 0.1 0.88201 0.00514274
0 0.1 -0.88201 0.00516928
0.0363518 0.1 0.88201 0.00803051
0.0363518 0.1 -0.88201 0.00811401
0.871687 0.1 0.15 0.00248767
0.871687 0.1 -0.15 0.0025165
0.714971 0.1 -0.525 0.00409204
0.714971 0.1 0.525 0.00398188
0.219992 0.1 0.8625 0.013089
0.219992 0.1 -0.8625 0.013002
0 0.1 0.9 0.00513896
0 0.1 -0.9 0.00516506
0.756814 0.1 -0.4875 0.00363886
0.756814 0.1 0.4875 0.00353379
0.871687 0.1 -0.225 0.00256656
0.871687 0.1 0.225 0.00252238
0.835107 0.1 -0.3375 0.00286086
0.835107 0.1 0.3375 0.00280052
0.410629 0.1 0.80701 0.00940529
0.905821 0.1 -0.0375 0.0022909
0.905821 0.1 0.0375 0.00228293
0.522864 0.1 0.746002 0.00710524
0.150379 0.1 0.9 0.0120543
0.905821 0.1 0.1125 0.00229235
0.905821 0.1 -0.1125 0.00231353
0.522864 0.1 -0.75 0.00713053
0.574156 0.1 -0.7125 0.00619738
0.574156 0.1 0.7125 0.00608875
0.797314 0.1 -0.45 0.00329347
0.797314 0.1 0.45 0.00320218
0.467897 0.1 0.7875 0.00810354
0.467897 0.1 -0.7875 0.00806879
0.150379 0.1 -0.903998 0.0121274
0 0.1 0.91799 0.00513435
0 0.1 -0.91799 0.00515995
0.0363518 0.1 0.91799 0.00794652
0.0363518 0.1 -0.91799 0.00802831
0.623803 0.1 -0.675 0.00547366
0.623803 0.1 0.675 0.00535407
0.411108 0.1 -0.825 0.00938906
0.871687 0.1 -0.3 0.00263052
0.871687 0.1 0.3 0.00257366
0.67013 0.1 0.6375 0.00465754
0.67013 0.1 -0.6375 0.00478432
0.905821 0.1 -0.1875 0.00235214
0.905821 0.1 0.1875 0.00231658
0.350249 0.1 0.8625 0.0107576
0.350249 0.1 -0.8625 0.0106742
0.835107 0.1 -0.4125 0.00296476
0.835107 0.1 0.4125 0.00288771
0.714971 0.1 -0.6 0.00428338
0.714971 0.1 0.6 0.00415744
0.93886 0.1 -1.25767e-17 0.00218483
0.0757758 0.1 0.9375 0.0109793
0.0757758 0.1 -0.9375 0.0111186
0.93886 0.1 -0.075 0.0021989
0.93886 0.1 0.075 0.0021858
0.756814 0.1 -0.5625 0.00380589
0.756814 0.1 0.5625 0.00368305
0.905821 0.1 -0.2625 0.00240734
0.905821 0.1 0.2625 0.00235628
0.287374 0.1 0.9 0.0118805
0.287374 0.1 -0.903998 0.0117937
0.871687 0.1 -0.375 0.00271337
0.871687 0.1 0.375 0.00264435
0.93886 0.1 -0.15 0.0022274
0.93886 0.1 0.15 0.00220196
0.797314 0.1 -0.525 0.00343758
0.797314 0.1 0.525 0.0033255
0 0.1 0.95701 0.00512749
0 0.1 -0.95701 0.00515226
0.0363518 0.1 0.95701 0.00793966
0.0363518 0.1 -0.95701 0.00802061
0.522432 0.1 0.80701 0.00729659
0.219992 0.1 0.9375 0.0129018
0.219992 0.1 -0.9375 0.0128731
0.93886 0.1 -0.225 0.00227099
0.93886 0.1 0.225 0.00223222
0.905821 0.1 -0.3375 0.00247383
0.905821 0.1 0.3375 0.00241147
0.835107 0.1 0.4875 0.00298595
0.835107 0.1 -0.4875 0.00308756
0.96969 0.1 -0.0375 0.00208817
0.96969 0.1 0.0375 0.00208157
0.61613 0.1 0.75 0.00561436
0.574156 0.1 0.7875 0.00637613
0.574156 0.1 -0.7875 0.00649808
0 0.1 0.975 0.00512574
0 0.1 -0.975 0.00515017
0.623803 0.1 -0.75 0.00575048
0.96969 0.1 -0.1125 0.0021073
0.96969 0.1 0.1125 0.00209061
0.522864 0.1 -0.825 0.00741644
0.67013 0.1 -0.7125 0.00503332
0.67013 0.1 0.7125 0.00488882
0.871687 0.1 -0.45 0.00282057
0.871687 0.1 0.45 0.0027304
0.467897 0.1 -0.8625 0.00837288
0.467897 0.1 0.8625 0.00833923
0.714971 0.1 -0.675 0.00450474
0.714971 0.1 0.675 0.00436118
0.93886 0.1 -0.3 0.00232859
0.93886 0.1 0.3 0.00227685
0.150379 0.1 0.975 0.0118995
0.150379 0.1 -0.975 0.0119654
0.96969 0.1 -0.1875 0.00214103
0.96969 0.1 0.1875 0.00211256
0.411108 0.1 0.9 0.0096213
0.756814 0.1 -0.6375 0.00400127
0.756814 0.1 0.6375 0.00386063
0.990306 0.1 0 0.00200523
0 0.1 0.99299 0.00512311
0 0.1 -0.99299 0.00514716
0.411108 0.1 -0.903998 0.00957339
0.990306 0.1 -0.075 0.00201744
0.990306 0.1 0.075 0.00200631
0.0363518 0.1 0.99299 0.00788124
0.0363518 0.1 -0.99299 0.00795962
0.905821 0.1 -0.4125 0.00256415
0.905821 0.1 0.4125 0.00248783
0.797314 0.1 -0.6 0.00360824
0.797314 0.1 0.6 0.0034777
0.350249 0.1 0.9375 0.0108705
0.350249 0.1 -0.9375 0.0108184
0.990306 0.1 -0.15 0.00204279
0.990306 0.1 0.15 0.00202111
0.96969 0.1 -0.2625 0.00218802
0.96969 0.1 0.2625 0.00214778
0.835107 0.1 -0.5625 0.00323443
0.835107 0.1 0.5625 0.00311551
0.93886 0.1 -0.375 0.00240451
0.93886 0.1 0.375 0.00233786
0.0757758 0.1 1.0125 0.0108585
0.0757758 0.1 -1.0125 0.0109925
0.990306 0.1 -0.225 0.00208182
0.990306 0.1 0.225 0.00204875
0.287374 0.1 -0.975 0.0118427
0.287374 0.1 0.975 0.0118636
0.871687 0.1 -0.525 0.00295033
0.871687 0.1 0.525 0.00283762
1.02149 0.1 -0.0369628 0.00185748
1.02149 0.1 0.0369628 0.00185206
0.96969 0.1 0.3375 0.00219633
0.96969 0.1 -0.3375 0.00224986
1.02149 0.1 -0.110888 0.00187337
1.02149 0.1 0.110888 0.00185898
0.905821 0.1 -0.4875 0.00267625
0.905821 0.1 0.4875 0.00257056
0.623803 0.1 0.819003 0.00578012
0 0.1 1.03201 0.0051205
0 0.1 -1.03201 0.00514366
0.0363518 0.1 1.03201 0.00787863
0.0363518 0.1 -1.03201 0.00795611
0.67013 0.1 -0.7875 0.00531522
0.67013 0.1 0.7875 0.00514722
0.623803 0.1 -0.825 0.00604689
0.990306 0.1 0.3 0.00208945
0.990306 0.1 -0.3 0.002135
0.219992 0.1 1.0125 0.0127646
0.219992 0.1 -1.0125 0.0127897
0.574156 0.1 0.8625 0.00668471
0.574156 0.1 -0.8625 0.00678709
0.714971 0.1 -0.75 0.00475915
0.714971 0.1 0.75 0.00459169
1.02149 0.1 -0.184814 0.00190256
1.02149 0.1 0.184814 0.00187791
0.756814 0.1 -0.7125 0.00422601
0.756814 0.1 0.7125 0.00406421
0.522864 0.1 0.9 0.00764383
0.93886 0.1 -0.45 0.00250599
0.93886 0.1 0.45 0.00241363
1.04168 0.1 0 0.00178309
1.04168 0.1 -0.0729162 0.00179255
1.04168 0.1 0.0729162 0.00178349
0.522864 0.1 -0.903998 0.00767651
0.797314 0.1 -0.675 0.00380723
0.797314 0.1 0.675 0.00365537
0.467897 0.1 0.9375 0.00861677
0.467897 0.1 -0.9375 0.00870968
0 0.1 1.05 0.00512086
0 0.1 -1.05 0.00514352
0.835107 0.1 -0.6375 0.00340844
0.835107 0.1 0.6375 0.00326862
1.04168 0.1 -0.145832 0.00181227
1.04168 0.1 0.145832 0.00179455
1.02149 0.1 -0.25874 0.00194385
1.02149 0.1 0.25874 0.00190858
0.96969 0.1 -0.4125 0.00233503
0.96969 0.1 0.4125 0.00226047
0.411108 0.1 0.975 0.00983076
0.411108 0.1 -0.975 0.00986626
0.871687 0.1 -0.6 0.00310594
0.871687 0.1 0.6 0.00297271
1.0579 0.1 -0.0360525 0.00173356
1.0579 0.1 0.0360525 0.00172884
0.990306 0.1 -0.375 0.00220684
0.990306 0.1 0.375 0.00214438
0.150379 0.1 1.05 0.0117932
0.150379 0.1 -1.05 0.0118815
1.0579 0.1 -0.108157 0.00174606
1.0579 0.1 0.108157 0.00173376
1.04168 0.1 -0.218749 0.00184307
1.04168 0.1 0.218749 0.00181586
0.905821 0.1 -0.5625 0.0028138
0.905821 0.1 0.5625 0.00268928
0 0.1 1.06799 0.00512028
0 0.1 -1.06799 0.00514241
0.0363518 0.1 -1.06799 0.00791637
0.0363518 0.1 1.06799 0.0078428
0.350249 0.1 1.0125 0.011002
0.350249 0.1 -1.0125 0.0109755
1.0579 0.1 -0.180262 0.00176857
1.0579 0.1 0.180262 0.00174749
1.02149 0.1 0.332665 0.00195185
1.02149 0.1 -0.332665 0.00200081
0.93886 0.1 -0.525 0.00262904
0.93886 0.1 0.525 0.00251145
1.08012 0.1 4.48137e-18 0.00167227
1.04168 0.1 -0.291665 0.0018862
1.04168 0.1 0.291665 0.00184784
1.08012 0.1 -0.0709942 0.00168001
1.08012 0.1 0.0709942 0.00167249
0.96969 0.1 -0.4875 0.00245333
0.96969 0.1 0.4875 0.00234049
1.0579 0.1 -0.252367 0.00180046
1.0579 0.1 0.252367 0.00177017
0.990306 0.1 -0.45 0.00230522
0.990306 0.1 0.45 0.00221544
0.287374 0.1 1.05 0.0118799
0.287374 0.1 -1.05 0.011898
0.714971 0.1 0.821002 0.00482133
1.08012 0.1 0.141988 0.00168132
1.08012 0.1 -0.141988 0.00169591
0.0757758 0.1 -1.0875 0.0109102
0.0757758 0.1 1.0875 0.0107841
0.714971 0.1 -0.825 0.00504812
0.756814 0.1 -0.7875 0.00448862
0.756814 0.1 0.7875 0.0042939
0.67013 0.1 -0.8625 0.00562891
0.67013 0.1 0.8625 0.005432
0.797314 0.1 -0.75 0.00403828
0.797314 0.1 0.75 0.00385867
0.623803 0.1 0.9 0.00620327
0.835107 0.1 -0.7125 0.00361094
0.835107 0.1 0.7125 0.00344582
0.623803 0.1 -0.903998 0.00631713
0.574156 0.1 0.9375 0.00699789
0.574156 0.1 -0.9375 0.0070947
1.02149 0.1 -0.406591 0.00207675
1.02149 0.1 0.406591 0.00200917
1.08012 0.1 -0.212982 0.00172071
1.08012 0.1 0.212982 0.0016983
1.10076 0.1 -0.034981 0.00162049
1.10076 0.1 0.034981 0.00161667
0.871687 0.1 -0.675 0.0032904
0.871687 0.1 0.675 0.00313108
1.04168 0.1 -0.364581 0.00194476
1.04168 0.1 0.364581 0.00189151
1.10076 0.1 0.104943 0.0016215
1.10076 0.1 -0.104943 0.00163082
0.522864 0.1 0.975 0.00794548
0.522864 0.1 -0.975 0.00806428
1.0579 0.1 0.324472 0.00180277
1.0579 0.1 -0.324472 0.00184536
0 0.1 1.10701 0.00512158
0 0.1 -1.10701 0.00514264
0.0363518 0.1 -1.10701 0.0079166
0.0363518 0.1 1.10701 0.0078441
0.905821 0.1 -0.6375 0.00297807
0.905821 0.1 0.6375 0.00282861
0.219992 0.1 -1.0875 0.0127441
0.219992 0.1 1.0875 0.0126727
0.93886 0.1 -0.6 0.00276986
0.93886 0.1 0.6 0.00263801
1.10076 0.1 0.174905 0.00163414
1.10076 0.1 -0.174905 0.00165015
0.467897 0.1 1.0125 0.00892632
0.467897 0.1 -1.0125 0.00904821
1.08012 0.1 -0.283977 0.00175572
1.08012 0.1 0.283977 0.00172395
1.11929 0.1 1.20274e-17 0.00157857
0.990306 0.1 -0.525 0.00241863
0.990306 0.1 0.525 0.00230844
0.96969 0.1 -0.5625 0.00257764
0.96969 0.1 0.5625 0.00245045
1.11929 0.1 0.0690357 0.001579
1.11929 0.1 -0.0690357 0.00158498
0 0.1 1.125 0.00512366
0 0.1 -1.125 0.00514421
0.411108 0.1 1.05 0.0100539
0.411108 0.1 -1.05 0.0101146
1.10076 0.1 -0.244867 0.00167733
1.10076 0.1 0.244867 0.00165453
1.11929 0.1 -0.138071 0.00159843
1.11929 0.1 0.138071 0.00158695
1.02149 0.1 0.480517 0.00208481
1.02149 0.1 -0.480517 0.00217647
1.0579 0.1 -0.396577 0.0019054
1.0579 0.1 0.396577 0.0018464
1.04168 0.1 -0.437497 0.00202286
1.04168 0.1 0.437497 0.00194982
0.150379 0.1 1.125 0.0117303
0.150379 0.1 -1.125 0.0118349
0.714971 0.1 0.88201 0.00485259
1.08012 0.1 -0.354971 0.00180338
1.08012 0.1 0.354971 0.00175903
1.11929 0.1 0.207107 0.00160203
1.11929 0.1 -0.207107 0.00161959
0.350249 0.1 1.0875 0.0111538
0.350249 0.1 -1.0875 0.0111575
0 0.1 -1.14299 0.00514474
0 0.1 1.14299 0.00512473
0.0363518 0.1 1.14299 0.00782672
0.0363518 0.1 -1.14299 0.00789344
1.14316 0.1 0.0339211 0.00152032
1.14316 0.1 -0.0339211 0.00152325
0.797314 0.1 0.821002 0.00408374
1.10076 0.1 -0.314829 0.00171577
1.10076 0.1 0.314829 0.0016836
0.797314 0.1 -0.825 0.00430309
0.756814 0.1 0.8625 0.00455148
0.756814 0.1 -0.8625 0.00478674
1.14316 0.1 0.101763 0.0015241
1.14316 0.1 -0.101763 0.00153148
0.835107 0.1 -0.7875 0.00384601
0.835107 0.1 0.7875 0.00364933
0.871687 0.1 -0.75 0.00349799
0.871687 0.1 0.75 0.00331532
0.67013 0.1 0.9375 0.00574367
0.67013 0.1 -0.9375 0.00597466
0.905821 0.1 -0.7125 0.00317535
0.905821 0.1 0.7125 0.00299285
0.714971 0.1 -0.903998 0.00532732
1.11929 0.1 -0.276143 0.00164956
1.11929 0.1 0.276143 0.00162469
1.14316 0.1 -0.169605 0.00154679
1.14316 0.1 0.169605 0.00153427
0.93886 0.1 -0.675 0.00292842
0.93886 0.1 0.675 0.00278453
1.15704 0.1 0 0.00149313
1.0579 0.1 -0.468682 0.00198344
1.0579 0.1 0.468682 0.00190547
0.623803 0.1 0.975 0.00652152
0.623803 0.1 -0.975 0.00670696
0.990306 0.1 -0.6 0.00254509
0.990306 0.1 0.6 0.00242913
1.15704 0.1 -0.0671479 0.00149825
1.15704 0.1 0.0671479 0.00149354
1.04168 0.1 -0.510414 0.00210751
1.04168 0.1 0.510414 0.00202538
0.96969 0.1 -0.6375 0.00271531
0.96969 0.1 0.6375 0.00258879
1.08012 0.1 -0.425965 0.0018668
1.08012 0.1 0.425965 0.00180606
0.287374 0.1 1.125 0.0119371
0.287374 0.1 -1.125 0.0119977
1.02149 0.1 -0.554442 0.00227053
1.02149 0.1 0.554442 0.00218099
0.574156 0.1 1.0125 0.00730458
0.574156 0.1 -1.0125 0.00746703
1.15704 0.1 -0.134296 0.00150914
1.15704 0.1 0.134296 0.00150017
0.0757758 0.1 -1.1625 0.010862
0.0757758 0.1 1.1625 0.0107476
1.10076 0.1 -0.384791 0.0017661
1.10076 0.1 0.384791 0.00172144
1.14316 0.1 -0.237448 0.00156862
1.14316 0.1 0.237448 0.00155076
1.11929 0.1 0.345179 0.00165538
1.11929 0.1 -0.345179 0.00169032
0.522864 0.1 1.05 0.00824749
0.522864 0.1 -1.05 0.00840404
1.15704 0.1 -0.201444 0.00152634
1.15704 0.1 0.201444 0.00151272
1.1744 0.1 -0.0331401 0.00146084
1.1744 0.1 0.0331401 0.00145838
1.1744 0.1 0.0994203 0.00146169
1.1744 0.1 -0.0994203 0.00146756
0 0.1 1.18201 0.00512953
0 0.1 -1.18201 0.00514853
0.0363518 0.1 -1.18201 0.00789723
0.0363518 0.1 1.18201 0.00783153
0.219992 0.1 -1.1625 0.0127322
0.219992 0.1 1.1625 0.012625
1.14316 0.1 -0.30529 0.00159964
1.14316 0.1 0.30529 0.0015744
0.467897 0.1 -1.0875 0.00936168
0.467897 0.1 1.0875 0.00922216
1.1744 0.1 -0.1657 0.00148055
1.1744 0.1 0.1657 0.00147058
1.15704 0.1 -0.268592 0.00155075
1.15704 0.1 0.268592 0.00153162
1.0579 0.1 0.540787 0.00198044
1.0579 0.1 -0.540787 0.00205596
0.796996 0.1 0.88201 0.00428268
1.08012 0.1 0.496959 0.00186713
1.08012 0.1 -0.496959 0.0019346
1.10076 0.1 -0.454752 0.00183311
1.10076 0.1 0.454752 0.00177231
1.11929 0.1 -0.414214 0.00174429
1.11929 0.1 0.414214 0.0016961
1.04168 0.1 -0.58333 0.00220631
1.04168 0.1 0.58333 0.00212197
1.1744 0.1 -0.231981 0.00149874
1.1744 0.1 0.231981 0.00148476
0.871687 0.1 0.821002 0.00352059
0.411108 0.1 1.125 0.0102877
0.411108 0.1 -1.125 0.0103872
1.19808 0.1 0 0.00141037
0.990306 0.1 -0.675 0.00268667
0.990306 0.1 0.675 0.00256397
1.02149 0.1 0.628368 0.00230238
1.02149 0.1 -0.628368 0.00240186
1.19808 0.1 0.0650961 0.00141075
1.19808 0.1 -0.0650961 0.00141461
0 0.1 1.2 0.00513334
0 0.1 -1.2 0.0051519
0.871687 0.1 -0.825 0.00373712
0.905821 0.1 -0.7875 0.00337145
0.905821 0.1 0.7875 0.00318522
0.835107 0.1 0.8625 0.00387986
0.835107 0.1 -0.8625 0.00411026
0.93886 0.1 -0.75 0.00310816
0.93886 0.1 0.75 0.00294782
1.14316 0.1 -0.373132 0.00164068
1.14316 0.1 0.373132 0.00160523
0.96969 0.1 -0.7125 0.00285139
0.96969 0.1 0.7125 0.00273322
1.15704 0.1 -0.33574 0.0015841
1.15704 0.1 0.33574 0.00155718
0.756814 0.1 0.9375 0.00483955
0.756814 0.1 -0.9375 0.00511705
1.19808 0.1 -0.130192 0.00142367
1.19808 0.1 0.130192 0.00141639
0.797314 0.1 -0.903998 0.00456359
0.714971 0.1 -0.975 0.00571947
0.714971 0.1 0.975 0.00545032
0.150379 0.1 -1.2 0.0118197
0.150379 0.1 1.2 0.011705
1.20938 0.1 -0.0322656 0.0013917
1.20938 0.1 0.0322656 0.00138956
1.1744 0.1 -0.298261 0.00152474
1.1744 0.1 0.298261 0.00150527
1.20938 0.1 -0.0967968 0.00139767
1.20938 0.1 0.0967968 0.00139251
1.19808 0.1 0.195288 0.00142699
1.19808 0.1 -0.195288 0.00143778
0.350249 0.1 -1.1625 0.0114198
0.350249 0.1 1.1625 0.0113588
0.67013 0.1 -1.0125 0.00633176
0.67013 0.1 1.0125 0.00608462
0 0.1 1.21799 0.00513607
0 0.1 -1.21799 0.00515416
0.0363518 0.1 1.21799 0.00782803
0.0363518 0.1 -1.21799 0.00788736
1.11929 0.1 -0.48325 0.00180493
1.11929 0.1 0.48325 0.00174888
1.10076 0.1 -0.524714 0.00189146
1.10076 0.1 0.524714 0.00183546
1.20938 0.1 0.161328 0.0014005
1.20938 0.1 -0.161328 0.00140905
1.08012 0.1 -0.567953 0.00201525
1.08012 0.1 0.567953 0.00194506
0.623803 0.1 1.05 0.00684704
0.623803 0.1 -1.05 0.00706167
1.0579 0.1 0.612892 0.00207579
1.0579 0.1 -0.612892 0.00216158
1.15704 0.1 -0.402888 0.00162774
1.15704 0.1 0.402888 0.00159075
1.14316 0.1 -0.440974 0.00169487
1.14316 0.1 0.440974 0.00164652
1.19808 0.1 -0.260384 0.0014575
1.19808 0.1 0.260384 0.00144284
1.2267 0.1 0 0.00135779
1.2267 0.1 -0.0636648 0.0013618
1.2267 0.1 0.0636648 0.00135813
1.1744 0.1 -0.364541 0.00155911
1.1744 0.1 0.364541 0.00153164
0.574156 0.1 -1.0875 0.00780702
0.574156 0.1 1.0875 0.00760314
1.20938 0.1 0.225859 0.00141296
1.20938 0.1 -0.225859 0.00142458
1.04168 0.1 -0.656246 0.00233729
1.04168 0.1 0.656246 0.00222723
1.2267 0.1 -0.12733 0.00137026
1.2267 0.1 0.12733 0.00136336
0.287374 0.1 -1.2 0.0121444
0.287374 0.1 1.2 0.0120437
1.02149 0.1 -0.702294 0.00255983
1.02149 0.1 0.702294 0.00242105
0.0757758 0.1 1.2375 0.0107397
0.0757758 0.1 -1.2375 0.0108411
0.871399 0.1 0.88201 0.00370244
0.522864 0.1 -1.125 0.00873622
0.522864 0.1 1.125 0.0085378
1.2267 0.1 -0.190995 0.00138317
1.2267 0.1 0.190995 0.00137317
1.19808 0.1 -0.32548 0.00148438
1.19808 0.1 0.32548 0.00146422
0.990306 0.1 -0.75 0.00285615
0.990306 0.1 0.75 0.00271071
1.24275 0.1 -0.0314313 0.00132824
1.24275 0.1 0.0314313 0.00132624
1.20938 0.1 -0.29039 0.00144648
1.20938 0.1 0.29039 0.00143095
1.24275 0.1 -0.0942939 0.00133402
1.24275 0.1 0.0942939 0.00132887
0.93886 0.1 0.821002 0.00312438
1.11929 0.1 -0.552286 0.00187442
1.11929 0.1 0.552286 0.0018152
1.15704 0.1 -0.470036 0.00168368
1.15704 0.1 0.470036 0.00163459
0.96969 0.1 -0.7875 0.00304172
0.96969 0.1 0.7875 0.00288611
0.93886 0.1 -0.825 0.00332398
0.905821 0.1 -0.8625 0.00363305
0.905821 0.1 0.8625 0.00340413
1.1744 0.1 -0.430821 0.00160297
1.1744 0.1 0.430821 0.00156634
1.10076 0.1 -0.594676 0.0019836
1.10076 0.1 0.594676 0.00191654
1.14316 0.1 -0.508816 0.00175369
1.14316 0.1 0.508816 0.00169903
1.24275 0.1 -0.157157 0.00134462
1.24275 0.1 0.157157 0.0013363
1.2267 0.1 -0.254659 0.00140085
1.2267 0.1 0.254659 0.0013877
0.467897 0.1 -1.1625 0.00969923
0.467897 0.1 1.1625 0.00950661
1.08012 0.1 -0.638947 0.00212354
1.08012 0.1 0.638947 0.00203047
1.25511 0.1 0 0.00130393
0.835107 0.1 -0.9375 0.00441583
0.835107 0.1 0.9375 0.00414098
0.871687 0.1 -0.903998 0.00398225
1.25511 0.1 -0.0622446 0.00130798
1.25511 0.1 0.0622446 0.00130408
0.219992 0.1 -1.2375 0.0127508
0.219992 0.1 1.2375 0.0126163
0 0.1 -1.25701 0.00516124
0 0.1 1.25701 0.00514409
0.0363518 0.1 1.25701 0.00783605
0.0363518 0.1 -1.25701 0.00789445
0.797314 0.1 0.975 0.00463868
0.797314 0.1 -0.975 0.0049363
1.19808 0.1 -0.390576 0.00151944
1.19808 0.1 0.390576 0.00149167
1.0579 0.1 0.684997 0.00216697
1.0579 0.1 -0.684997 0.00229283
1.20938 0.1 -0.354921 0.00147557
1.20938 0.1 0.354921 0.00145399
1.25511 0.1 -0.124489 0.00131628
1.25511 0.1 0.124489 0.00130889
1.24275 0.1 -0.220019 0.00135868
1.24275 0.1 0.220019 0.00134772
0.756814 0.1 -1.0125 0.00548223
0.756814 0.1 1.0125 0.00516346
1.2267 0.1 -0.318324 0.00142479
1.2267 0.1 0.318324 0.0014073
0.411108 0.1 -1.2 0.010694
0.411108 0.1 1.2 0.0105505
1.25511 0.1 0.186734 0.00131805
1.25511 0.1 -0.186734 0.00132859
0.714971 0.1 1.05 0.00579137
0.714971 0.1 -1.05 0.00607989
1.04168 0.1 -0.729162 0.00249648
1.04168 0.1 0.729162 0.00234734
1.24275 0.1 0.282882 0.00136408
1.24275 0.1 -0.282882 0.00137794
0 0.1 1.275 0.00514934
0 0.1 -1.275 0.00516611
1.1744 0.1 -0.497101 0.00166542
1.1744 0.1 0.497101 0.00161126
1.15704 0.1 -0.537184 0.00174206
1.15704 0.1 0.537184 0.00168914
1.2756 0.1 -0.0306099 0.00126441
1.2756 0.1 0.0306099 0.00126234
0.67013 0.1 -1.0875 0.00668551
0.67013 0.1 1.0875 0.00643972
1.2756 0.1 0.0918298 0.00126455
1.2756 0.1 -0.0918298 0.00127052
1.25511 0.1 -0.248978 0.00134506
1.25511 0.1 0.248978 0.00133158
1.20938 0.1 0.419453 0.00148334
1.20938 0.1 -0.419453 0.00151345
1.11929 0.1 -0.621321 0.00196532
1.11929 0.1 0.621321 0.00189272
1.14316 0.1 -0.576658 0.00182173
1.14316 0.1 0.576658 0.0017641
1.19808 0.1 -0.455672 0.0015678
1.19808 0.1 0.455672 0.00152738
1.02149 0.1 0.776219 0.00257553
1.02149 0.1 -0.776219 0.00275008
0.150379 0.1 1.275 0.0117124
0.150379 0.1 -1.275 0.0118368
1.2756 0.1 -0.15305 0.00128082
1.2756 0.1 0.15305 0.00127143