# pMean  POINT_DATA 63140
# x  y  z  pMean
0 0.1 0 0.223871
0 0.1 -0.0179898 0.223962
0 0.1 0.0179898 0.223785
0.0363518 0.1 -0.0179898 0.223962
0.0363518 0.1 0.0179898 0.223785
0 0.1 -0.0570102 0.223998
0 0.1 0.0570102 0.223447
0.0363518 0.1 0.0570102 0.223447
0.0363518 0.1 -0.0570102 0.223998
0 0.1 -0.075 0.223942
0 0.1 0.075 0.223224
0.0757758 0.1 -0.0375 0.224062
0.0757758 0.1 0.0375 0.223692
0 0.1 -0.0929898 0.223889
0 0.1 0.0929898 0.223003
0.0363518 0.1 -0.0929898 0.223889
0.0363518 0.1 0.0929898 0.223003
0 0.1 -0.13201 0.223607
0 0.1 0.13201 0.222376
0.0757758 0.1 -0.1125 0.223833
0.0757758 0.1 0.1125 0.222765
0.0363518 0.1 -0.13201 0.223607
0.0363518 0.1 0.13201 0.222376
0 0.1 -0.15 0.223401
0 0.1 0.15 0.222019
0.150379 0.1 -4.33681e-19 0.216227
0 0.1 -0.16799 0.2232
0 0.1 0.16799 0.221665
0.150379 0.1 -0.075 0.216221
0.150379 0.1 0.075 0.215558
0.0363518 0.1 -0.16799 0.2232
0.0363518 0.1 0.16799 0.221665
0.0757758 0.1 -0.1875 0.222981
0.0757758 0.1 0.1875 0.221283
0 0.1 -0.20701 0.222581
0 0.1 0.20701 0.220733
0.0363518 0.1 -0.20701 0.222581
0.0363518 0.1 0.20701 0.220733
0.150379 0.1 -0.15 0.215509
0.150379 0.1 0.15 0.214227
0.219992 0.1 -0.0375 0.209078
0.219992 0.1 0.0375 0.208786
0 0.1 -0.225 0.222217
0 0.1 0.225 0.220229
0 0.1 -0.24299 0.221855
0 0.1 0.24299 0.219729
0.0363518 0.1 0.24299 0.219729
0.0363518 0.1 -0.24299 0.221855
0.219992 0.1 -0.1125 0.208628
0.219992 0.1 0.1125 0.207699
0.150379 0.1 0.225 0.212222
0.150379 0.1 -0.225 0.214089
0.0757758 0.1 0.2625 0.219186
0.0757758 0.1 -0.2625 0.221463
0 0.1 -0.28201 0.220899
0 0.1 0.28201 0.218477
0.0363518 0.1 -0.28201 0.220899
0.0363518 0.1 0.28201 0.218477
0.287374 0.1 0 0.212248
0.219992 0.1 -0.1875 0.207326
0.219992 0.1 0.1875 0.205881
0.287374 0.1 -0.075 0.212208
0.287374 0.1 0.075 0.21153
0 0.1 -0.3 0.220382
0 0.1 0.3 0.217828
0 0.1 -0.31799 0.219866
0 0.1 0.31799 0.21718
0.0363518 0.1 -0.31799 0.219866
0.0363518 0.1 0.31799 0.21718
0.287374 0.1 -0.15 0.211388
0.287374 0.1 0.15 0.210061
0.150379 0.1 -0.3 0.212022
0.150379 0.1 0.3 0.209554
0.219992 0.1 -0.2625 0.205338
0.219992 0.1 0.2625 0.203279
0.0757758 0.1 -0.3375 0.21931
0.0757758 0.1 0.3375 0.216479
0.350249 0.1 -0.0375 0.215611
0.350249 0.1 0.0375 0.215231
0 0.1 0.35701 0.21562
0 0.1 -0.35701 0.21859
0.0363518 0.1 -0.35701 0.21859
0.0363518 0.1 0.35701 0.21562
0.287374 0.1 -0.225 0.209806
0.287374 0.1 0.225 0.207847
0.350249 0.1 0.1125 0.21412
0.350249 0.1 -0.1125 0.215223
0 0.1 -0.375 0.21793
0 0.1 0.375 0.214831
0 0.1 -0.39299 0.217272
0 0.1 0.39299 0.214044
0.0363518 0.1 -0.39299 0.217272
0.0363518 0.1 0.39299 0.214044
0.350249 0.1 -0.1875 0.214078
0.350249 0.1 0.1875 0.21226
0.219992 0.1 -0.3375 0.20275
0.219992 0.1 0.3375 0.200038
0.150379 0.1 -0.375 0.209351
0.150379 0.1 0.375 0.2063
0.411108 0.1 -2.21177e-17 0.220705
0.287374 0.1 -0.3 0.207531
0.287374 0.1 0.3 0.20493
0.411108 0.1 0.075 0.219906
0.411108 0.1 -0.075 0.220663
0.0757758 0.1 -0.4125 0.21656
0.0757758 0.1 0.4125 0.213192
0 0.1 -0.43201 0.215693
0 0.1 0.43201 0.212195
0.0363518 0.1 -0.43201 0.215693
0.0363518 0.1 0.43201 0.212195
0.411108 0.1 -0.15 0.219776
0.411108 0.1 0.15 0.218277
0.350249 0.1 -0.2625 0.212179
0.350249 0.1 0.2625 0.209684
0 0.1 -0.45 0.214897
0 0.1 0.45 0.21128
0.219992 0.1 -0.4125 0.199577
0.219992 0.1 0.4125 0.196278
0 0.1 -0.46799 0.214103
0 0.1 0.46799 0.210366
0.411108 0.1 -0.225 0.218062
0.411108 0.1 0.225 0.215842
0.467897 0.1 0.0375 0.225581
0.467897 0.1 -0.0375 0.225965
0.0363518 0.1 -0.46799 0.214103
0.0363518 0.1 0.46799 0.210366
0.287374 0.1 -0.375 0.204608
0.287374 0.1 0.375 0.201395
0.150379 0.1 -0.45 0.206125
0.150379 0.1 0.45 0.202522
0.467897 0.1 -0.1125 0.225423
0.467897 0.1 0.1125 0.224265
0.350249 0.1 0.3375 0.206437
0.350249 0.1 -0.3375 0.209555
0.0757758 0.1 -0.4875 0.213243
0.0757758 0.1 0.4875 0.209377
0.467897 0.1 -0.1875 0.22396
0.467897 0.1 0.1875 0.222044
0 0.1 -0.50701 0.212243
0 0.1 0.50701 0.208255
0.0363518 0.1 -0.50701 0.212243
0.0363518 0.1 0.50701 0.208255
0.411108 0.1 -0.3 0.215556
0.411108 0.1 0.3 0.212651
0.522864 0.1 -2.08167e-17 0.232108
0 0.1 -0.525 0.211324
0 0.1 0.525 0.207225
0.522864 0.1 -0.075 0.232018
0.522864 0.1 0.075 0.231199
0.287374 0.1 -0.45 0.201095
0.287374 0.1 0.45 0.197299
0.219992 0.1 -0.4875 0.195929
0.219992 0.1 0.4875 0.192048
0.467897 0.1 0.2625 0.218979
0.467897 0.1 -0.2625 0.221627
0.350249 0.1 -0.4125 0.206253
0.350249 0.1 0.4125 0.202546
0 0.1 -0.54299 0.210406
0 0.1 0.54299 0.206195
0.522864 0.1 0.15 0.229304
0.522864 0.1 -0.15 0.230933
0.0363518 0.1 -0.54299 0.210406
0.0363518 0.1 0.54299 0.206195
0.150379 0.1 -0.525 0.202405
0.150379 0.1 0.525 0.198289
0.411108 0.1 -0.375 0.212303
0.411108 0.1 0.375 0.208755
0.0757758 0.1 -0.5625 0.209413
0.0757758 0.1 0.5625 0.205081
0.522864 0.1 -0.225 0.228881
0.522864 0.1 0.225 0.226465
0.574156 0.1 -0.0375 0.238418
0.574156 0.1 0.0375 0.237983
0.467897 0.1 -0.3375 0.21848
0.467897 0.1 0.3375 0.215128
0 0.1 -0.58201 0.208294
0 0.1 0.58201 0.203851
0.0363518 0.1 -0.58201 0.208294
0.0363518 0.1 0.58201 0.203851
0.574156 0.1 -0.1125 0.237779
0.574156 0.1 0.1125 0.236484
0.287374 0.1 -0.525 0.197061
0.287374 0.1 0.525 0.192721
0 0.1 -0.6 0.207267
0 0.1 0.6 0.202721
0.350249 0.1 -0.4875 0.202329
0.350249 0.1 0.4875 0.198052
0.522864 0.1 0.3 0.222746
0.522864 0.1 -0.3 0.225913
0.219992 0.1 -0.5625 0.191858
0.219992 0.1 0.5625 0.187473
0.574156 0.1 -0.1875 0.236089
0.574156 0.1 0.1875 0.233949
0.411108 0.1 -0.45 0.20836
0.411108 0.1 0.45 0.204208
0 0.1 -0.61799 0.20624
0 0.1 0.61799 0.201591
0.150379 0.1 -0.6 0.198238
0.150379 0.1 0.6 0.193658
0.0363518 0.1 -0.61799 0.20624
0.0363518 0.1 0.61799 0.201591
0.467897 0.1 0.4125 0.210559
0.467897 0.1 -0.4125 0.214565
0.623803 0.1 1.04083e-17 0.245418
0.623803 0.1 -0.075 0.245303
0.623803 0.1 0.075 0.244377
0.574156 0.1 -0.2625 0.233381
0.574156 0.1 0.2625 0.230431
0.623803 0.1 -0.15 0.244036
0.623803 0.1 0.15 0.242202
0.0757758 0.1 0.6375 0.200368
0.0757758 0.1 -0.6375 0.205128
0.522864 0.1 -0.375 0.222089
0.522864 0.1 0.375 0.21822
0 0.1 0.65701 0.199045
0 0.1 -0.65701 0.203908
0.0363518 0.1 0.65701 0.199045
0.0363518 0.1 -0.65701 0.203908
0.350249 0.1 -0.5625 0.197852
0.350249 0.1 0.5625 0.193051
0.623803 0.1 -0.225 0.241647
0.623803 0.1 0.225 0.238937
0.287374 0.1 -0.6 0.192562
0.287374 0.1 0.6 0.187734
0.574156 0.1 -0.3375 0.229713
0.574156 0.1 0.3375 0.22601
0.411108 0.1 -0.525 0.203796
0.411108 0.1 0.525 0.199085
0.67013 0.1 -0.0375 0.252626
0.67013 0.1 0.0375 0.252131
0.219992 0.1 0.6375 0.182547
0.219992 0.1 -0.6375 0.187385
0 0.1 -0.675 0.202786
0 0.1 0.675 0.197829
0.467897 0.1 -0.4875 0.209959
0.467897 0.1 0.4875 0.205353
0.67013 0.1 -0.1125 0.251874
0.67013 0.1 0.1125 0.250401
0.522864 0.1 -0.45 0.217484
0.522864 0.1 0.45 0.212968
0.150379 0.1 0.675 0.188668
0.150379 0.1 -0.675 0.19367
0.623803 0.1 0.3 0.234656
0.623803 0.1 -0.3 0.238187
0 0.1 -0.69299 0.201664
0 0.1 0.69299 0.196613
0.0363518 0.1 0.69299 0.196613
0.0363518 0.1 -0.69299 0.201664
0.67013 0.1 0.1875 0.247475
0.67013 0.1 -0.1875 0.249897
0.574156 0.1 -0.4125 0.22517
0.574156 0.1 0.4125 0.220769
0.714971 0.1 -1.82146e-17 0.260213
0.0757758 0.1 0.7125 0.195298
0.0757758 0.1 -0.7125 0.200451
0.714971 0.1 -0.075 0.260067
0.714971 0.1 0.075 0.259016
0.67013 0.1 -0.2625 0.246727
0.67013 0.1 0.2625 0.243411
0.411108 0.1 -0.6 0.198692
0.411108 0.1 0.6 0.193475
0.350249 0.1 -0.6375 0.192898
0.350249 0.1 0.6375 0.187626
0.623803 0.1 -0.375 0.233739
0.623803 0.1 0.375 0.22945
0.714971 0.1 0.15 0.256506
0.714971 0.1 -0.15 0.25858
0.467897 0.1 -0.5625 0.204742
0.467897 0.1 0.5625 0.199593
0 0.1 -0.73201 0.199144
0 0.1 0.73201 0.193898
0.0363518 0.1 -0.73201 0.199144
0.0363518 0.1 0.73201 0.193898
0.287374 0.1 0.675 0.182388
0.287374 0.1 -0.675 0.187654
0.522864 0.1 -0.525 0.212186
0.522864 0.1 0.525 0.207086
0.219992 0.1 0.7125 0.177303
0.219992 0.1 -0.7125 0.182555
0.714971 0.1 0.225 0.252737
0.714971 0.1 -0.225 0.255789
0 0.1 0.75 0.192612
0 0.1 -0.75 0.197943
0.67013 0.1 -0.3375 0.242451
0.67013 0.1 0.3375 0.238312
0.574156 0.1 0.4875 0.214808
0.574156 0.1 -0.4875 0.219842
0.756814 0.1 -0.0375 0.268071
0.756814 0.1 0.0375 0.267509
0.150379 0.1 0.746002 0.183787
0.150379 0.1 -0.75 0.188757
0.756814 0.1 -0.1125 0.267183
0.756814 0.1 0.1125 0.265515
0 0.1 0.76799 0.191326
0 0.1 -0.76799 0.196742
0.0363518 0.1 0.76799 0.191326
0.0363518 0.1 -0.76799 0.196742
0.623803 0.1 -0.45 0.2284
0.623803 0.1 0.45 0.22342
0.714971 0.1 0.3 0.247796
0.714971 0.1 -0.3 0.251761
0.756814 0.1 -0.1875 0.264863
0.756814 0.1 0.1875 0.262136
0.67013 0.1 -0.4125 0.237173
0.67013 0.1 0.4125 0.232278
0.411108 0.1 -0.675 0.193131
0.411108 0.1 0.675 0.187466
0.467897 0.1 -0.6375 0.199004
0.467897 0.1 0.6375 0.193371
0.0757758 0.1 -0.7875 0.195442
0.0757758 0.1 0.7875 0.189933
0.350249 0.1 0.7125 0.181862
0.350249 0.1 -0.7125 0.187543
0.522864 0.1 -0.6 0.206292
0.522864 0.1 0.6 0.200672
0.797314 0.1 -2.86229e-17 0.27602
0.287374 0.1 0.746002 0.176974
0.797314 0.1 -0.075 0.275845
0.797314 0.1 0.075 0.274646
0.756814 0.1 0.2625 0.257448
0.756814 0.1 -0.2625 0.261181
0.287374 0.1 -0.75 0.182401
0.574156 0.1 -0.5625 0.213831
0.574156 0.1 0.5625 0.208237
0 0.1 0.80701 0.188474
0 0.1 -0.80701 0.194065
0.714971 0.1 -0.375 0.246589
0.714971 0.1 0.375 0.241798
0.0363518 0.1 -0.80701 0.194065
0.0363518 0.1 0.80701 0.188474
0.797314 0.1 -0.15 0.27412
0.797314 0.1 0.15 0.271759
0.623803 0.1 -0.525 0.222278
0.623803 0.1 0.525 0.216684
0.219992 0.1 0.7875 0.171795
0.219992 0.1 -0.7875 0.177428
0.149792 0.1 0.80701 0.179202
0 0.1 0.825 0.187133
0 0.1 -0.825 0.192799
0.797314 0.1 -0.225 0.270891
0.797314 0.1 0.225 0.267428
0.756814 0.1 -0.3375 0.256213
0.756814 0.1 0.3375 0.251559
0.67013 0.1 -0.4875 0.230996
0.67013 0.1 0.4875 0.225424
0.835107 0.1 -0.0375 0.284327
0.835107 0.1 0.0375 0.283681
0.150379 0.1 -0.825 0.18356
0.835107 0.1 -0.1125 0.283308
0.835107 0.1 0.1125 0.281392
0 0.1 0.84299 0.185791
0 0.1 -0.84299 0.191533
0.0363518 0.1 0.84299 0.185791
0.0363518 0.1 -0.84299 0.191533
0.714971 0.1 -0.45 0.240394
0.714971 0.1 0.45 0.234868
0.411108 0.1 0.746002 0.181403
0.797314 0.1 -0.3 0.266235
0.797314 0.1 0.3 0.261755
0.467897 0.1 -0.7125 0.192839
0.467897 0.1 0.7125 0.18678
0.522864 0.1 0.675 0.193829
0.522864 0.1 -0.675 0.199903
0.411108 0.1 -0.75 0.187197
0.835107 0.1 -0.1875 0.280644
0.835107 0.1 0.1875 0.277519
0.286844 0.1 0.80701 0.172298
0.574156 0.1 0.6375 0.201166
0.574156 0.1 -0.6375 0.207251
0.350249 0.1 -0.7875 0.181867
0.350249 0.1 0.7875 0.175831
0.756814 0.1 0.4125 0.244618
0.756814 0.1 -0.4125 0.250074
0.623803 0.1 -0.6 0.215493
0.623803 0.1 0.6 0.209366
0.0757758 0.1 0.8625 0.184339
0.0757758 0.1 -0.8625 0.190163
0.871687 0.1 -1.73472e-17 0.2924
0.287374 0.1 -0.825 0.17687
0.871687 0.1 -0.075 0.292195
0.871687 0.1 0.075 0.290828
0.67013 0.1 -0.5625 0.224054
0.67013 0.1 0.5625 0.217899
0.835107 0.1 0.2625 0.272153
0.835107 0.1 -0.2625 0.276408
0.797314 0.1 -0.375 0.260262
0.797314 0.1 0.375 0.254879
0 0.1 0.88201 0.182836
0 0.1 -0.88201 0.188733
0.0363518 0.1 0.88201 0.182836
0.0363518 0.1 -0.88201 0.188733
0.871687 0.1 0.15 0.287527
0.871687 0.1 -0.15 0.290215
0.714971 0.1 -0.525 0.233315
0.714971 0.1 0.525 0.227144
0.219992 0.1 0.8625 0.166093
0.219992 0.1 -0.8625 0.172058
0 0.1 0.9 0.181453
0 0.1 -0.9 0.187417
0.756814 0.1 -0.4875 0.242921
0.756814 0.1 0.4875 0.236756
0.871687 0.1 -0.225 0.286505
0.871687 0.1 0.225 0.282579
0.835107 0.1 -0.3375 0.270688
0.835107 0.1 0.3375 0.265426
0.410629 0.1 0.80701 0.176177
0.905821 0.1 -0.0375 0.300936
0.905821 0.1 0.0375 0.300204
0.522864 0.1 0.746002 0.186938
0.150379 0.1 0.9 0.172099
0.905821 0.1 0.1125 0.297591
0.905821 0.1 -0.1125 0.299761
0.522864 0.1 -0.75 0.193123
0.574156 0.1 -0.7125 0.200213
0.574156 0.1 0.7125 0.193709
0.797314 0.1 -0.45 0.253126
0.797314 0.1 0.45 0.246956
0.467897 0.1 0.7875 0.179912
0.467897 0.1 -0.7875 0.186336
0.150379 0.1 -0.903998 0.178481
0 0.1 0.91799 0.18007
0 0.1 -0.91799 0.186102
0.0363518 0.1 0.91799 0.18007
0.0363518 0.1 -0.91799 0.186102
0.623803 0.1 -0.675 0.208173
0.623803 0.1 0.675 0.20159
0.411108 0.1 -0.825 0.180974
0.871687 0.1 -0.3 0.281159
0.871687 0.1 0.3 0.276107
0.67013 0.1 0.6375 0.20983
0.67013 0.1 -0.6375 0.216484
0.905821 0.1 -0.1875 0.296704
0.905821 0.1 0.1875 0.293173
0.350249 0.1 0.8625 0.169597
0.350249 0.1 -0.8625 0.175942
0.835107 0.1 -0.4125 0.263647
0.835107 0.1 0.4125 0.257509
0.714971 0.1 -0.6 0.225499
0.714971 0.1 0.6 0.218782
0.93886 0.1 -1.25767e-17 0.308848
0.0757758 0.1 0.9375 0.178574
0.0757758 0.1 -0.9375 0.184678
0.93886 0.1 -0.075 0.308637
0.93886 0.1 0.075 0.307057
0.756814 0.1 -0.5625 0.234909
0.756814 0.1 0.5625 0.228135
0.905821 0.1 -0.2625 0.291838
0.905821 0.1 0.2625 0.287057
0.287374 0.1 0.9 0.164827
0.287374 0.1 -0.903998 0.171735
0.871687 0.1 -0.375 0.274317
0.871687 0.1 0.375 0.268274
0.93886 0.1 -0.15 0.306419
0.93886 0.1 0.15 0.303321
0.797314 0.1 -0.525 0.244996
0.797314 0.1 0.525 0.238148
0 0.1 0.95701 0.177042
0 0.1 -0.95701 0.183209
0.0363518 0.1 0.95701 0.177042
0.0363518 0.1 -0.95701 0.183209
0.522432 0.1 0.80701 0.181045
0.219992 0.1 0.9375 0.160251
0.219992 0.1 -0.9375 0.166503
0.93886 0.1 -0.225 0.30224
0.93886 0.1 0.225 0.297737
0.905821 0.1 -0.3375 0.285295
0.905821 0.1 0.3375 0.279399
0.835107 0.1 0.4875 0.248566
0.835107 0.1 -0.4875 0.255466
0.96969 0.1 -0.0375 0.317359
0.96969 0.1 0.0375 0.316499
0.61613 0.1 0.75 0.193481
0.574156 0.1 0.7875 0.185974
0.574156 0.1 -0.7875 0.192835
0 0.1 0.975 0.175632
0 0.1 -0.975 0.181857
0.623803 0.1 -0.75 0.200447
0.96969 0.1 -0.1125 0.316098
0.96969 0.1 0.1125 0.313547
0.522864 0.1 -0.825 0.186054
0.67013 0.1 -0.7125 0.208429
0.67013 0.1 0.7125 0.20136
0.871687 0.1 -0.45 0.266154
0.871687 0.1 0.45 0.259264
0.467897 0.1 -0.8625 0.179583
0.467897 0.1 0.8625 0.172855
0.714971 0.1 -0.675 0.217106
0.714971 0.1 0.675 0.209936
0.93886 0.1 -0.3 0.296211
0.93886 0.1 0.3 0.290449
0.150379 0.1 0.975 0.166246
0.150379 0.1 -0.975 0.172546
0.96969 0.1 -0.1875 0.312721
0.96969 0.1 0.1875 0.308594
0.411108 0.1 0.9 0.16787
0.756814 0.1 -0.6375 0.226208
0.756814 0.1 0.6375 0.21894
0.990306 0.1 0 0.321555
0 0.1 0.99299 0.174223
0 0.1 -0.99299 0.180506
0.411108 0.1 -0.903998 0.175214
0.990306 0.1 -0.075 0.321345
0.990306 0.1 0.075 0.31957
0.0363518 0.1 0.99299 0.174223
0.0363518 0.1 -0.99299 0.180506
0.905821 0.1 -0.4125 0.277253
0.905821 0.1 0.4125 0.270397
0.797314 0.1 -0.6 0.236052
0.797314 0.1 0.6 0.228649
0.350249 0.1 0.9375 0.163221
0.350249 0.1 -0.9375 0.169845
0.990306 0.1 -0.15 0.318927
0.990306 0.1 0.15 0.315454
0.96969 0.1 -0.2625 0.307318
0.96969 0.1 0.2625 0.301762
0.835107 0.1 -0.5625 0.246327
0.835107 0.1 0.5625 0.238794
0.93886 0.1 -0.375 0.288494
0.93886 0.1 0.375 0.281641
0.0757758 0.1 1.0125 0.172698
0.0757758 0.1 -1.0125 0.179043
0.990306 0.1 -0.225 0.31435
0.990306 0.1 0.225 0.309319
0.287374 0.1 -0.975 0.165232
0.287374 0.1 0.975 0.158674
0.871687 0.1 -0.525 0.256869
0.871687 0.1 0.525 0.249278
1.02149 0.1 -0.0369628 0.331482
1.02149 0.1 0.0369628 0.330534
0.96969 0.1 0.3375 0.293234
0.96969 0.1 -0.3375 0.300028
1.02149 0.1 -0.110888 0.33011
1.02149 0.1 0.110888 0.327287
0.905821 0.1 -0.4875 0.267895
0.905821 0.1 0.4875 0.260251
0.623803 0.1 0.819003 0.186785
0 0.1 1.03201 0.171151
0 0.1 -1.03201 0.17755
0.0363518 0.1 1.03201 0.171151
0.0363518 0.1 -1.03201 0.17755
0.67013 0.1 -0.7875 0.200032
0.67013 0.1 0.7875 0.192622
0.623803 0.1 -0.825 0.19244
0.990306 0.1 0.3 0.301324
0.990306 0.1 -0.3 0.307738
0.219992 0.1 1.0125 0.154324
0.219992 0.1 -1.0125 0.160818
0.574156 0.1 0.8625 0.178067
0.574156 0.1 -0.8625 0.185226
0.714971 0.1 -0.75 0.208295
0.714971 0.1 0.75 0.200755
1.02149 0.1 -0.184814 0.326404
1.02149 0.1 0.184814 0.32185
0.756814 0.1 -0.7125 0.216999
0.756814 0.1 0.7125 0.209328
0.522864 0.1 0.9 0.17172
0.93886 0.1 -0.45 0.279292
0.93886 0.1 0.45 0.271529
1.04168 0.1 0 0.336904
1.04168 0.1 -0.0729162 0.336738
1.04168 0.1 0.0729162 0.33476
0.522864 0.1 -0.903998 0.179566
0.797314 0.1 -0.675 0.226486
0.797314 0.1 0.675 0.218647
0.467897 0.1 0.9375 0.165685
0.467897 0.1 -0.9375 0.172674
0 0.1 1.05 0.169728
0 0.1 -1.05 0.176177
0.835107 0.1 -0.6375 0.236437
0.835107 0.1 0.6375 0.228422
1.04168 0.1 -0.145832 0.334241
1.04168 0.1 0.145832 0.330371
1.02149 0.1 -0.25874 0.320481
1.02149 0.1 0.25874 0.314355
0.96969 0.1 -0.4125 0.291055
0.96969 0.1 0.4125 0.283213
0.411108 0.1 0.975 0.161063
0.411108 0.1 -0.975 0.16798
0.871687 0.1 -0.6 0.246683
0.871687 0.1 0.6 0.238547
1.0579 0.1 -0.0360525 0.342024
1.0579 0.1 0.0360525 0.341021
0.990306 0.1 -0.375 0.29927
0.990306 0.1 0.375 0.291675
0.150379 0.1 1.05 0.160319
0.150379 0.1 -1.05 0.166844
1.0579 0.1 -0.108157 0.340725
1.0579 0.1 0.108157 0.337729
1.04168 0.1 -0.218749 0.329456
1.04168 0.1 0.218749 0.323856
0.905821 0.1 -0.5625 0.257466
0.905821 0.1 0.5625 0.249202
0 0.1 1.06799 0.168304
0 0.1 -1.06799 0.174804
0.0363518 0.1 -1.06799 0.174804
0.0363518 0.1 1.06799 0.168304
0.350249 0.1 1.0125 0.156777
0.350249 0.1 -1.0125 0.163624
1.0579 0.1 -0.180262 0.337087
1.0579 0.1 0.180262 0.33226
1.02149 0.1 0.332665 0.305004
1.02149 0.1 -0.332665 0.312488
0.93886 0.1 -0.525 0.268841
0.93886 0.1 0.525 0.260354
1.08012 0.1 4.48137e-18 0.348069
1.04168 0.1 -0.291665 0.322512
1.04168 0.1 0.291665 0.31538
1.08012 0.1 -0.0709942 0.347981
1.08012 0.1 0.0709942 0.345856
0.96969 0.1 -0.4875 0.280646
0.96969 0.1 0.4875 0.271961
1.0579 0.1 -0.252367 0.331229
1.0579 0.1 0.252367 0.324739
0.990306 0.1 -0.45 0.289176
0.990306 0.1 0.45 0.280621
0.287374 0.1 1.05 0.152468
0.287374 0.1 -1.05 0.159241
0.714971 0.1 0.821002 0.192101
1.08012 0.1 0.141988 0.341403
1.08012 0.1 -0.141988 0.345561
0.0757758 0.1 -1.0875 0.173318
0.0757758 0.1 1.0875 0.166764
0.714971 0.1 -0.825 0.199217
0.756814 0.1 -0.7875 0.207454
0.756814 0.1 0.7875 0.199462
0.67013 0.1 -0.8625 0.191424
0.67013 0.1 0.8625 0.183746
0.797314 0.1 -0.75 0.216488
0.797314 0.1 0.75 0.208314
0.623803 0.1 0.9 0.176732
0.835107 0.1 -0.7125 0.226009
0.835107 0.1 0.7125 0.217627
0.623803 0.1 -0.903998 0.185133
0.574156 0.1 0.9375 0.170086
0.574156 0.1 -0.9375 0.177495
1.02149 0.1 -0.406591 0.302645
1.02149 0.1 0.406591 0.294029
1.08012 0.1 -0.212982 0.340843
1.08012 0.1 0.212982 0.334828
1.10076 0.1 -0.034981 0.354917
1.10076 0.1 0.034981 0.353797
0.871687 0.1 -0.675 0.235832
0.871687 0.1 0.675 0.22729
1.04168 0.1 -0.364581 0.313582
1.04168 0.1 0.364581 0.305155
1.10076 0.1 0.104943 0.350361
1.10076 0.1 -0.104943 0.353738
0.522864 0.1 0.975 0.164132
0.522864 0.1 -0.975 0.171435
1.0579 0.1 0.324472 0.31536
1.0579 0.1 -0.324472 0.323276
0 0.1 1.10701 0.165215
0 0.1 -1.10701 0.171816
0.0363518 0.1 -1.10701 0.171816
0.0363518 0.1 1.10701 0.165215
0.905821 0.1 -0.6375 0.24622
0.905821 0.1 0.6375 0.237508
0.219992 0.1 -1.0875 0.155055
0.219992 0.1 1.0875 0.148357
0.93886 0.1 -0.6 0.257397
0.93886 0.1 0.6 0.248385
1.10076 0.1 0.174905 0.344743
1.10076 0.1 -0.174905 0.350174
0.467897 0.1 1.0125 0.15848
0.467897 0.1 -1.0125 0.165675
1.08012 0.1 -0.283977 0.333945
1.08012 0.1 0.283977 0.326289
1.11929 0.1 1.20274e-17 0.359551
0.990306 0.1 -0.525 0.277718
0.990306 0.1 0.525 0.268433
0.96969 0.1 -0.5625 0.269062
0.96969 0.1 0.5625 0.259735
1.11929 0.1 0.0690357 0.357224
1.11929 0.1 -0.0690357 0.359559
0 0.1 1.125 0.163791
0 0.1 -1.125 0.170435
0.411108 0.1 1.05 0.154233
0.411108 0.1 -1.05 0.161348
1.10076 0.1 -0.244867 0.344365
1.10076 0.1 0.244867 0.337051
1.11929 0.1 -0.138071 0.357212
1.11929 0.1 0.138071 0.352636
1.02149 0.1 0.480517 0.28173
1.02149 0.1 -0.480517 0.291198
1.0579 0.1 -0.396577 0.31343
1.0579 0.1 0.396577 0.304344
1.04168 0.1 -0.437497 0.302893
1.04168 0.1 0.437497 0.293441
0.150379 0.1 1.125 0.154366
0.150379 0.1 -1.125 0.161081
0.714971 0.1 0.88201 0.185588
1.08012 0.1 -0.354971 0.325017
1.08012 0.1 0.354971 0.315986
1.11929 0.1 0.207107 0.345909
1.11929 0.1 -0.207107 0.352531
0.350249 0.1 1.0875 0.150316
0.350249 0.1 -1.0875 0.157352
0 0.1 -1.14299 0.169053
0 0.1 1.14299 0.162366
0.0363518 0.1 1.14299 0.162366
0.0363518 0.1 -1.14299 0.169053
1.14316 0.1 0.0339211 0.366235
1.14316 0.1 -0.0339211 0.367443
0.797314 0.1 0.821002 0.198253
1.10076 0.1 -0.314829 0.336396
1.10076 0.1 0.314829 0.32748
0.797314 0.1 -0.825 0.206243
0.756814 0.1 0.8625 0.189498
0.756814 0.1 -0.8625 0.197729
1.14316 0.1 0.101763 0.362689
1.14316 0.1 -0.101763 0.366332
0.835107 0.1 -0.7875 0.215235
0.835107 0.1 0.7875 0.206606
0.871687 0.1 -0.75 0.224553
0.871687 0.1 0.75 0.215708
0.67013 0.1 0.9375 0.17484
0.67013 0.1 -0.9375 0.18273
0.905821 0.1 -0.7125 0.234415
0.905821 0.1 0.7125 0.225376
0.714971 0.1 -0.903998 0.190975
1.11929 0.1 -0.276143 0.345626
1.11929 0.1 0.276143 0.337192
1.14316 0.1 -0.169605 0.362806
1.14316 0.1 0.169605 0.356938
0.93886 0.1 -0.675 0.24524
0.93886 0.1 0.675 0.235879
1.15704 0.1 0 0.370843
1.0579 0.1 -0.468682 0.301928
1.0579 0.1 0.468682 0.291971
0.623803 0.1 0.975 0.168303
0.623803 0.1 -0.975 0.176043
0.990306 0.1 -0.6 0.26519
0.990306 0.1 0.6 0.255409
1.15704 0.1 -0.0671479 0.37096
1.15704 0.1 0.0671479 0.368397
1.04168 0.1 -0.510414 0.290708
1.04168 0.1 0.510414 0.280524
0.96969 0.1 -0.6375 0.256575
0.96969 0.1 0.6375 0.246856
1.08012 0.1 -0.425965 0.314272
1.08012 0.1 0.425965 0.304165
0.287374 0.1 1.125 0.146257
0.287374 0.1 -1.125 0.153205
1.02149 0.1 -0.554442 0.278435
1.02149 0.1 0.554442 0.268391
0.574156 0.1 1.0125 0.162121
0.574156 0.1 -1.0125 0.169724
1.15704 0.1 -0.134296 0.368702
1.15704 0.1 0.134296 0.36367
0.0757758 0.1 -1.1625 0.167558
0.0757758 0.1 1.1625 0.160825
1.10076 0.1 -0.384791 0.32646
1.10076 0.1 0.384791 0.316233
1.14316 0.1 -0.237448 0.356997
1.14316 0.1 0.237448 0.349092
1.11929 0.1 0.345179 0.326682
1.11929 0.1 -0.345179 0.336631
0.522864 0.1 1.05 0.156569
0.522864 0.1 -1.05 0.164052
1.15704 0.1 -0.201444 0.36408
1.15704 0.1 0.201444 0.356792
1.1744 0.1 -0.0331401 0.376589
1.1744 0.1 0.0331401 0.375276
1.1744 0.1 0.0994203 0.371598
1.1744 0.1 -0.0994203 0.375605
0 0.1 1.18201 0.159287
0 0.1 -1.18201 0.16606
0.0363518 0.1 -1.18201 0.16606
0.0363518 0.1 1.18201 0.159287
0.219992 0.1 -1.1625 0.149253
0.219992 0.1 1.1625 0.142386
1.14316 0.1 -0.30529 0.348976
1.14316 0.1 0.30529 0.339336
0.467897 0.1 -1.0875 0.158669
0.467897 0.1 1.0875 0.151302
1.1744 0.1 -0.1657 0.372165
1.1744 0.1 0.1657 0.365719
1.15704 0.1 -0.268592 0.357198
1.15704 0.1 0.268592 0.347905
1.0579 0.1 0.540787 0.278515
1.0579 0.1 -0.540787 0.289058
0.796996 0.1 0.88201 0.189832
1.08012 0.1 0.496959 0.2911
1.08012 0.1 -0.496959 0.301972
1.10076 0.1 -0.454752 0.314774
1.10076 0.1 0.454752 0.303585
1.11929 0.1 -0.414214 0.325743
1.11929 0.1 0.414214 0.314617
1.04168 0.1 -0.58333 0.277345
1.04168 0.1 0.58333 0.266698
1.1744 0.1 -0.231981 0.366436
1.1744 0.1 0.231981 0.357734
0.871687 0.1 0.821002 0.2045
0.411108 0.1 1.125 0.147439
0.411108 0.1 -1.125 0.154713
1.19808 0.1 0 0.383222
0.990306 0.1 -0.675 0.251923
0.990306 0.1 0.675 0.241836
1.02149 0.1 0.628368 0.254323
1.02149 0.1 -0.628368 0.26472
1.19808 0.1 0.0650961 0.380644
1.19808 0.1 -0.0650961 0.38347
0 0.1 1.2 0.157872
0 0.1 -1.2 0.164681
0.871687 0.1 -0.825 0.213067
0.905821 0.1 -0.7875 0.222341
0.905821 0.1 0.7875 0.21303
0.835107 0.1 0.8625 0.195531
0.835107 0.1 -0.8625 0.204335
0.93886 0.1 -0.75 0.232656
0.93886 0.1 0.75 0.223061
1.14316 0.1 -0.373132 0.338925
1.14316 0.1 0.373132 0.327871
0.96969 0.1 -0.7125 0.243513
0.96969 0.1 0.7125 0.233566
1.15704 0.1 -0.33574 0.348173
1.15704 0.1 0.33574 0.337203
0.756814 0.1 0.9375 0.179567
0.756814 0.1 -0.9375 0.187978
1.19808 0.1 -0.130192 0.381337
1.19808 0.1 0.130192 0.375777
0.797314 0.1 -0.903998 0.196994
0.714971 0.1 -0.975 0.180808
0.714971 0.1 0.975 0.172585
0.150379 0.1 -1.2 0.155304
0.150379 0.1 1.2 0.148429
1.20938 0.1 -0.0322656 0.387012
1.20938 0.1 0.0322656 0.385594
1.1744 0.1 -0.298261 0.358453
1.1744 0.1 0.298261 0.34783
1.20938 0.1 -0.0967968 0.386156
1.20938 0.1 0.0967968 0.381789
1.19808 0.1 0.195288 0.368756
1.19808 0.1 -0.195288 0.37682
0.350249 0.1 -1.1625 0.151069
0.350249 0.1 1.1625 0.14389
0.67013 0.1 -1.0125 0.174051
0.67013 0.1 1.0125 0.16601
0 0.1 1.21799 0.156457
0 0.1 -1.21799 0.163303
0.0363518 0.1 1.21799 0.156457
0.0363518 0.1 -1.21799 0.163303
1.11929 0.1 -0.48325 0.313223
1.11929 0.1 0.48325 0.301266
1.10076 0.1 -0.524714 0.301646
1.10076 0.1 0.524714 0.289801
1.20938 0.1 0.161328 0.37579
1.20938 0.1 -0.161328 0.382812
1.08012 0.1 -0.567953 0.288421
1.08012 0.1 0.567953 0.277078
0.623803 0.1 1.05 0.159958
0.623803 0.1 -1.05 0.16785
1.0579 0.1 0.612892 0.264286
1.0579 0.1 -0.612892 0.275151
1.15704 0.1 -0.402888 0.337188
1.15704 0.1 0.402888 0.324913
1.14316 0.1 -0.440974 0.327042
1.14316 0.1 0.440974 0.31496
1.19808 0.1 -0.260384 0.370018
1.19808 0.1 0.260384 0.359715
1.2267 0.1 0 0.391316
1.2267 0.1 -0.0636648 0.391656
1.2267 0.1 0.0636648 0.388645
1.1744 0.1 -0.364541 0.348403
1.1744 0.1 0.364541 0.336201
0.574156 0.1 -1.0875 0.161995
0.574156 0.1 1.0875 0.154244
1.20938 0.1 0.225859 0.367676
1.20938 0.1 -0.225859 0.377179
1.04168 0.1 -0.656246 0.26317
1.04168 0.1 0.656246 0.25226
1.2267 0.1 -0.12733 0.389613
1.2267 0.1 0.12733 0.38368
0.287374 0.1 -1.2 0.14717
0.287374 0.1 1.2 0.14008
1.02149 0.1 -0.702294 0.250436
1.02149 0.1 0.702294 0.239802
0.0757758 0.1 1.2375 0.154926
0.0757758 0.1 -1.2375 0.161811
0.871399 0.1 0.88201 0.195143
0.522864 0.1 -1.125 0.15672
0.522864 0.1 1.125 0.149095
1.2267 0.1 -0.190995 0.385176
1.2267 0.1 0.190995 0.37656
1.19808 0.1 -0.32548 0.361031
1.19808 0.1 0.32548 0.348845
0.990306 0.1 -0.75 0.238229
0.990306 0.1 0.75 0.227972
1.24275 0.1 -0.0314313 0.39675
1.24275 0.1 0.0314313 0.395225
1.20938 0.1 -0.29039 0.369256
1.20938 0.1 0.29039 0.357634
1.24275 0.1 -0.0942939 0.396019
1.24275 0.1 0.0942939 0.391295
0.93886 0.1 0.821002 0.210706
1.11929 0.1 -0.552286 0.299375
1.11929 0.1 0.552286 0.286906
1.15704 0.1 -0.470036 0.324493
1.15704 0.1 0.470036 0.311305
0.96969 0.1 -0.7875 0.230149
0.96969 0.1 0.7875 0.220089
0.93886 0.1 -0.825 0.219898
0.905821 0.1 -0.8625 0.210181
0.905821 0.1 0.8625 0.20071
1.1744 0.1 -0.430821 0.33645
1.1744 0.1 0.430821 0.323102
1.10076 0.1 -0.594676 0.28737
1.10076 0.1 0.594676 0.275184
1.14316 0.1 -0.508816 0.313638
1.14316 0.1 0.508816 0.300874
1.24275 0.1 -0.157157 0.392778
1.24275 0.1 0.157157 0.385177
1.2267 0.1 -0.254659 0.37844
1.2267 0.1 0.254659 0.367415
0.467897 0.1 -1.1625 0.151721
0.467897 0.1 1.1625 0.14422
1.08012 0.1 -0.638947 0.273962
1.08012 0.1 0.638947 0.262405
1.25511 0.1 0 0.399326
0.835107 0.1 -0.9375 0.193467
0.835107 0.1 0.9375 0.184555
0.871687 0.1 -0.903998 0.20274
1.25511 0.1 -0.0622446 0.399743
1.25511 0.1 0.0622446 0.39658
0.219992 0.1 -1.2375 0.143457
0.219992 0.1 1.2375 0.136451
0 0.1 -1.25701 0.160328
0 0.1 1.25701 0.153411
0.0363518 0.1 1.25701 0.153411
0.0363518 0.1 -1.25701 0.160328
0.797314 0.1 0.975 0.176965
0.797314 0.1 -0.975 0.185673
1.19808 0.1 -0.390576 0.350026
1.19808 0.1 0.390576 0.336364
1.0579 0.1 0.684997 0.249562
1.0579 0.1 -0.684997 0.260575
1.20938 0.1 -0.354921 0.359233
1.20938 0.1 0.354921 0.345855
1.25511 0.1 -0.124489 0.397772
1.25511 0.1 0.124489 0.391534
1.24275 0.1 -0.220019 0.387244
1.24275 0.1 0.220019 0.376938
0.756814 0.1 -1.0125 0.178314
0.756814 0.1 1.0125 0.169781
1.2267 0.1 -0.318324 0.369495
1.2267 0.1 0.318324 0.356432
0.411108 0.1 -1.2 0.14813
0.411108 0.1 1.2 0.140731
1.25511 0.1 0.186734 0.384333
1.25511 0.1 -0.186734 0.3934
0.714971 0.1 1.05 0.163369
0.714971 0.1 -1.05 0.17171
1.04168 0.1 -0.729162 0.248538
1.04168 0.1 0.729162 0.237494
1.24275 0.1 0.282882 0.366762
1.24275 0.1 -0.282882 0.379395
0 0.1 1.275 0.152018
0 0.1 -1.275 0.158963
1.1744 0.1 -0.497101 0.32292
1.1744 0.1 0.497101 0.308808
1.15704 0.1 -0.537184 0.310395
1.15704 0.1 0.537184 0.29665
1.2756 0.1 -0.0306099 0.406256
1.2756 0.1 0.0306099 0.404609
0.67013 0.1 -1.0875 0.165489
0.67013 0.1 1.0875 0.157333
1.2756 0.1 0.0918298 0.400561
1.2756 0.1 -0.0918298 0.405638
1.25511 0.1 -0.248978 0.386717
1.25511 0.1 0.248978 0.375099
1.20938 0.1 0.419453 0.332582
1.20938 0.1 -0.419453 0.347252
1.11929 0.1 -0.621321 0.284529
1.11929 0.1 0.621321 0.27186
1.14316 0.1 -0.576658 0.29901
1.14316 0.1 0.576658 0.285891
1.19808 0.1 -0.455672 0.337235
1.19808 0.1 0.455672 0.322535
1.02149 0.1 0.776219 0.225138
1.02149 0.1 -0.776219 0.235872
0.150379 0.1 1.275 0.142551
0.150379 0.1 -1.275 0.149554
1.2756 0.1 -0.15305 0.40252
1.2756 0.1 0.15305 0.394324
1.2267 0.1 -0.381989 0.3585
1.2267 0.1 0.381989 0.343826
1.10076 0.1 -0.664638 0.272322
1.10076 0.1 0.664638 0.260058
0.350249 0.1 -1.2375 0.14483
0.350249 0.1 1.2375 0.137532
0.623803 0.1 1.125 0.151763
0.623803 0.1 -1.125 0.159771
0.9386 0.1 0.88201 0.200444
0.990306 0.1 0.825 0.214501
0.990306 0.1 -0.825 0.224396
1.24275 0.1 0.345744 0.354841
1.24275 0.1 -0.345744 0.369416
1.2906 0.1 0 0.409548
1.07933 0.1 0.709942 0.247352
1.2906 0.1 -0.0604698 0.41013
1.2906 0.1 0.0604698 0.406635
1.08012 0.1 -0.709942 0.258961
0 0.1 1.29299 0.150624
0 0.1 -1.29299 0.157599
1.25511 0.1 -0.311223 0.377804
1.25511 0.1 0.311223 0.364019
1.2756 0.1 -0.21427 0.397092
1.2756 0.1 0.21427 0.385967
0.0363518 0.1 1.29299 0.150624
0.0363518 0.1 -1.29299 0.157599
1.2906 0.1 -0.12094 0.408327
1.2906 0.1 0.12094 0.40142
0.574156 0.1 1.1625 0.146512
0.574156 0.1 -1.1625 0.154379
0.96969 0.1 -0.8625 0.216746
0.96969 0.1 0.8625 0.206689
1.0579 0.1 0.757102 0.234627
1.0579 0.1 -0.757102 0.245681
1.1744 0.1 -0.563382 0.308094
1.1744 0.1 0.563382 0.293586
1.20938 0.1 0.483984 0.318094
1.20938 0.1 -0.483984 0.333618
1.2906 0.1 -0.181409 0.404109
1.2906 0.1 0.181409 0.394053
0.93886 0.1 -0.903998 0.208486
0.905821 0.1 0.9375 0.188587
0.905821 0.1 -0.9375 0.198136
1.2756 0.1 -0.275489 0.389334
1.2756 0.1 0.275489 0.375668
1.2267 0.1 -0.445654 0.345674
1.2267 0.1 0.445654 0.329856
1.15704 0.1 -0.604332 0.29521
1.15704 0.1 0.604332 0.281261
1.19808 0.1 -0.520768 0.322952
1.19808 0.1 0.520768 0.307627
1.30646 0.1 0.0298385 0.41311
1.30646 0.1 -0.0298385 0.41488
0.287374 0.1 1.275 0.13397
0.287374 0.1 -1.275 0.141171
0.871687 0.1 -0.975 0.190215
0.871687 0.1 0.975 0.180961
1.24275 0.1 -0.408607 0.35743
1.24275 0.1 0.408607 0.341407
0.522864 0.1 -1.2 0.149504
0.522864 0.1 1.2 0.141772
1.25511 0.1 0.373467 0.351302