# pMean  POINT_DATA 63889
# x  y  z  pMean
0 0.5 3.39582e-17 0.196271
0 0.5 -0.00617965 0.196298
0 0.5 0.00617965 0.196248
0.0124871 0.5 -0.00617965 0.196298
0.0124871 0.5 0.00617965 0.196248
0 0.5 -0.0688203 0.196292
0 0.5 0.0688203 0.195737
0.0124871 0.5 -0.0688203 0.196292
0.0124871 0.5 0.0688203 0.195737
0 0.5 -0.075 0.196264
0 0.5 0.075 0.195659
0 0.5 -0.0811797 0.196239
0 0.5 0.0811797 0.195585
0.0124871 0.5 -0.0811797 0.196239
0.0124871 0.5 0.0811797 0.195585
0.0757758 0.5 -0.0375 0.196435
0.0757758 0.5 0.0375 0.19613
0.0757758 0.5 -0.1125 0.196115
0.0757758 0.5 0.1125 0.195211
0 0.5 -0.14382 0.195719
0 0.5 0.14382 0.194572
0.0124871 0.5 -0.14382 0.195719
0.0124871 0.5 0.14382 0.194572
0 0.5 -0.15 0.195641
0 0.5 0.15 0.194445
0.151149 0.5 -0.00137326 0.196581
0 0.5 -0.15618 0.195566
0 0.5 0.15618 0.194322
0.0124871 0.5 -0.15618 0.195566
0.0124871 0.5 0.15618 0.194322
0.151149 0.5 -0.075 0.196594
0.151149 0.5 0.075 0.195972
0.0757758 0.5 -0.1875 0.195188
0.0757758 0.5 0.1875 0.193701
0.151149 0.5 -0.15 0.195965
0.151149 0.5 0.15 0.194739
0 0.5 -0.21882 0.194544
0 0.5 0.21882 0.192817
0.0124871 0.5 -0.21882 0.194544
0.0124871 0.5 0.21882 0.192817
0.219992 0.5 -0.0375 0.197064
0.219992 0.5 0.0375 0.19674
0 0.5 -0.225 0.194417
0 0.5 0.225 0.192642
0 0.5 -0.23118 0.194293
0 0.5 0.23118 0.192471
0.0124871 0.5 -0.23118 0.194293
0.0124871 0.5 0.23118 0.192471
0.219992 0.5 -0.1125 0.196755
0.219992 0.5 0.1125 0.195804
0.151149 0.5 -0.225 0.194723
0.151149 0.5 0.225 0.192906
0.0757758 0.5 -0.2625 0.193667
0.0757758 0.5 0.2625 0.191604
0.288069 0.5 -0.00137326 0.200095
0.219992 0.5 -0.1875 0.195796
0.219992 0.5 0.1875 0.194237
0 0.5 -0.29382 0.192786
0 0.5 0.29382 0.190494
0.0124871 0.5 -0.29382 0.192786
0.0124871 0.5 0.29382 0.190494
0.288069 0.5 -0.075 0.200127
0.288069 0.5 0.075 0.199464
0 0.5 -0.3 0.192612
0 0.5 0.3 0.190274
0 0.5 -0.30618 0.19244
0 0.5 0.30618 0.190057
0.0124871 0.5 -0.30618 0.19244
0.0124871 0.5 0.30618 0.190057
0.288069 0.5 -0.15 0.199442
0.288069 0.5 0.15 0.198133
0.151149 0.5 -0.3 0.192895
0.151149 0.5 0.3 0.190504
0.219992 0.5 -0.2625 0.194238
0.219992 0.5 0.2625 0.192083
0.0757758 0.5 -0.3375 0.191577
0.0757758 0.5 0.3375 0.188964
0.350249 0.5 -0.0375 0.203348
0.350249 0.5 0.0375 0.203002
0.288069 0.5 -0.225 0.198094
0.288069 0.5 0.225 0.196154
0.350249 0.5 -0.1125 0.202974
0.350249 0.5 0.1125 0.201947
0 0.5 0.36882 0.187641
0 0.5 -0.36882 0.190473
0.0124871 0.5 -0.36882 0.190473
0.0124871 0.5 0.36882 0.187641
0 0.5 -0.375 0.190255
0 0.5 0.375 0.187379
0 0.5 -0.38118 0.190039
0 0.5 0.38118 0.187121
0.0124871 0.5 -0.38118 0.190039
0.0124871 0.5 0.38118 0.187121
0.350249 0.5 -0.1875 0.201884
0.350249 0.5 0.1875 0.20019
0.219992 0.5 -0.3375 0.192095
0.219992 0.5 0.3375 0.18937
0.151149 0.5 -0.375 0.190508
0.151149 0.5 0.375 0.18757
0.411736 0.5 -0.00137326 0.207406
0.288069 0.5 -0.3 0.196113
0.288069 0.5 0.3 0.193566
0.411736 0.5 -0.075 0.207428
0.411736 0.5 0.075 0.206704
0.0757758 0.5 -0.4125 0.188953
0.0757758 0.5 0.4125 0.185815
0.350249 0.5 -0.2625 0.200108
0.350249 0.5 0.2625 0.197768
0.411736 0.5 -0.15 0.206636
0.411736 0.5 0.15 0.205204
0 0.5 -0.44382 0.187643
0 0.5 0.44382 0.184299
0.0124871 0.5 -0.44382 0.187643
0.0124871 0.5 0.44382 0.184299
0 0.5 -0.45 0.187384
0 0.5 0.45 0.183999
0 0.5 -0.45618 0.187127
0 0.5 0.45618 0.183702
0.0124871 0.5 -0.45618 0.187127
0.0124871 0.5 0.45618 0.183702
0.219992 0.5 -0.4125 0.189407
0.219992 0.5 0.4125 0.186141
0.411736 0.5 0.225 0.202972
0.411736 0.5 -0.225 0.205091
0.467897 0.5 0.0375 0.2113
0.467897 0.5 -0.0375 0.211681
0.288069 0.5 -0.375 0.193533
0.288069 0.5 0.375 0.190409
0.151149 0.5 -0.45 0.1876
0.151149 0.5 0.45 0.184147
0.467897 0.5 -0.1125 0.211243
0.467897 0.5 0.1125 0.210107
0.350249 0.5 -0.3375 0.197677
0.350249 0.5 0.3375 0.194722
0.0757758 0.5 0.4875 0.182203
0.0757758 0.5 -0.4875 0.185835
0.467897 0.5 -0.1875 0.209985
0.467897 0.5 0.1875 0.20812
0.411736 0.5 -0.3 0.202829
0.411736 0.5 0.3 0.200053
0 0.5 -0.51882 0.184338
0 0.5 0.51882 0.180514
0.0124871 0.5 -0.51882 0.184338
0.0124871 0.5 0.51882 0.180514
0.523432 0.5 -0.00137326 0.216513
0 0.5 -0.525 0.184042
0 0.5 0.525 0.18018
0.523432 0.5 -0.075 0.216528
0.523432 0.5 0.075 0.215722
0 0.5 -0.53118 0.183748
0 0.5 0.53118 0.179849
0.0124871 0.5 -0.53118 0.183748
0.0124871 0.5 0.53118 0.179849
0.288069 0.5 -0.45 0.190397
0.288069 0.5 0.45 0.186732
0.219992 0.5 -0.4875 0.186212
0.219992 0.5 0.4875 0.182442
0.467897 0.5 -0.2625 0.207942
0.467897 0.5 0.2625 0.205379
0.350249 0.5 -0.4125 0.194638
0.350249 0.5 0.4125 0.191104
0.523432 0.5 -0.15 0.215612
0.523432 0.5 0.15 0.214017
0.151149 0.5 -0.525 0.184216
0.151149 0.5 0.525 0.180281
0.411736 0.5 -0.375 0.199892
0.411736 0.5 0.375 0.196494
0.0757758 0.5 -0.5625 0.182268
0.0757758 0.5 0.5625 0.178176
0.523432 0.5 -0.225 0.213834
0.523432 0.5 0.225 0.21148
0.574156 0.5 0.0375 0.221164
0.574156 0.5 -0.0375 0.221593
0.467897 0.5 -0.3375 0.20516
0.467897 0.5 0.3375 0.20193
0.574156 0.5 -0.1125 0.221078
0.574156 0.5 0.1125 0.219804
0 0.5 -0.59382 0.180604
0 0.5 0.59382 0.176335
0.0124871 0.5 -0.59382 0.180604
0.0124871 0.5 0.59382 0.176335
0.288069 0.5 -0.525 0.186757
0.288069 0.5 0.525 0.18259
0 0.5 -0.6 0.180275
0 0.5 0.6 0.175971
0.350249 0.5 0.4875 0.18697
0.350249 0.5 -0.4875 0.191042
0.523432 0.5 -0.3 0.211235
0.523432 0.5 0.3 0.208162
0.219992 0.5 -0.5625 0.18256
0.219992 0.5 0.5625 0.178323
0.574156 0.5 -0.1875 0.219632
0.574156 0.5 0.1875 0.217537
0 0.5 -0.60618 0.179949
0 0.5 0.60618 0.175609
0.0124871 0.5 -0.60618 0.179949
0.0124871 0.5 0.60618 0.175609
0.411736 0.5 -0.45 0.196333
0.411736 0.5 0.45 0.192357
0.151149 0.5 -0.6 0.180404
0.151149 0.5 0.6 0.176024
0.62168 0.5 4.33681e-17 0.226748
0.467897 0.5 -0.4125 0.201687
0.467897 0.5 0.4125 0.197834
0.624316 0.5 0.0729401 0.226153
0.624316 0.5 -0.075 0.227065
0.574156 0.5 -0.2625 0.217282
0.574156 0.5 0.2625 0.214405
0.0757758 0.5 -0.6375 0.178302
0.0757758 0.5 0.6375 0.173784
0.624316 0.5 -0.15 0.226005
0.624316 0.5 0.15 0.224202
0.523432 0.5 -0.375 0.207869
0.523432 0.5 0.375 0.204122
0.350249 0.5 -0.5625 0.186948
0.350249 0.5 0.5625 0.182383
0.624316 0.5 -0.225 0.223956
0.624316 0.5 0.225 0.221298
0.288069 0.5 -0.6 0.182666
0.288069 0.5 0.6 0.178041
0.574156 0.5 -0.3375 0.21408
0.574156 0.5 0.3375 0.210475
0.411736 0.5 0.525 0.187709
0.411736 0.5 -0.525 0.192216
0 0.5 0.66882 0.171814
0 0.5 -0.66882 0.176493
0.0124871 0.5 -0.66882 0.176493
0.0124871 0.5 0.66882 0.171814
0.67013 0.5 -0.0375 0.232824
0.67013 0.5 0.0375 0.232335
0.219992 0.5 -0.6375 0.1785
0.219992 0.5 0.6375 0.173836
0 0.5 -0.675 0.176135
0 0.5 0.675 0.171424
0.467897 0.5 -0.4875 0.197589
0.467897 0.5 0.4875 0.193164
0.67013 0.5 -0.1125 0.232224
0.67013 0.5 0.1125 0.230773
0 0.5 -0.68118 0.17578
0 0.5 0.68118 0.171037
0.0124871 0.5 -0.68118 0.17578
0.0124871 0.5 0.68118 0.171037
0.523432 0.5 -0.45 0.2038
0.523432 0.5 0.45 0.199433
0.151149 0.5 -0.675 0.176214
0.151149 0.5 0.675 0.171427
0.624316 0.5 -0.3 0.220963
0.624316 0.5 0.3 0.217503
0.67013 0.5 -0.1875 0.230552
0.67013 0.5 0.1875 0.228172
0.574156 0.5 0.4125 0.205818
0.574156 0.5 -0.4125 0.210095
0.708171 0.5 3.5345e-17 0.237719
0.0757758 0.5 -0.7125 0.173987
0.0757758 0.5 0.7125 0.169082
0.715434 0.5 0.0736267 0.237497
0.715434 0.5 -0.075 0.238705
0.67013 0.5 -0.2625 0.22784
0.67013 0.5 0.2625 0.224578
0.350249 0.5 -0.6375 0.182419
0.350249 0.5 0.6375 0.177408
0.411736 0.5 0.6 0.182621
0.411736 0.5 -0.6 0.187607
0.624316 0.5 -0.375 0.217091
0.624316 0.5 0.375 0.212895
0.715434 0.5 -0.15 0.237479
0.715434 0.5 0.15 0.235422
0.467897 0.5 -0.5625 0.192937
0.467897 0.5 0.5625 0.187996
0.288069 0.5 -0.675 0.178183
0.288069 0.5 0.675 0.173144
0.523432 0.5 -0.525 0.199105
0.523432 0.5 0.525 0.194177
0 0.5 0.74382 0.167004
0 0.5 -0.74382 0.172056
0.0124871 0.5 -0.74382 0.172056
0.0124871 0.5 0.74382 0.167004
0.219992 0.5 0.7125 0.169036
0.219992 0.5 -0.7125 0.174086
0.715434 0.5 -0.225 0.235117
0.715434 0.5 0.225 0.232092
0 0.5 -0.75 0.171674
0 0.5 0.75 0.166593
0.67013 0.5 -0.3375 0.224151
0.67013 0.5 0.3375 0.22008
0.574156 0.5 -0.4875 0.205406
0.574156 0.5 0.4875 0.200518
0 0.5 0.75618 0.166184
0 0.5 -0.75618 0.171294
0.0124871 0.5 -0.75618 0.171294
0.0124871 0.5 0.75618 0.166184
0.756814 0.5 0.0375 0.244405
0.756814 0.5 -0.0375 0.244966
0.151149 0.5 0.75 0.166544
0.151149 0.5 -0.75 0.171699
0.756814 0.5 -0.1125 0.244272
0.756814 0.5 0.1125 0.24261
0.624316 0.5 -0.45 0.212425
0.624316 0.5 0.45 0.207558
0.715434 0.5 -0.3 0.231672
0.715434 0.5 0.3 0.227744
0.756814 0.5 -0.1875 0.242343
0.756814 0.5 0.1875 0.239623
0.67013 0.5 -0.4125 0.219569
0.67013 0.5 0.4125 0.214763
0.411736 0.5 -0.675 0.182579
0.411736 0.5 0.675 0.177166
0.467897 0.5 -0.6375 0.18781
0.467897 0.5 0.6375 0.182408
0.0757758 0.5 -0.7875 0.169378
0.0757758 0.5 0.7875 0.164121
0.350249 0.5 -0.7125 0.177521
0.350249 0.5 0.7125 0.172112
0.523432 0.5 0.6 0.188442
0.523432 0.5 -0.6 0.193868
0.797732 0.5 1.60462e-17 0.251118
0.756814 0.5 -0.2625 0.239224
0.756814 0.5 0.2625 0.235505
0.797732 0.5 0.0736267 0.249739
0.797732 0.5 -0.075 0.25105
0.288069 0.5 0.75 0.167959
0.288069 0.5 -0.75 0.173368
0.574156 0.5 -0.5625 0.2001
0.574156 0.5 0.5625 0.194669
0.715434 0.5 -0.375 0.227222
0.715434 0.5 0.375 0.222478
0.797732 0.5 -0.15 0.249645
0.797732 0.5 0.15 0.247283
0.624316 0.5 -0.525 0.207056
0.624316 0.5 0.525 0.201593
0.219992 0.5 -0.7875 0.169372
0.219992 0.5 0.7875 0.163975
0 0.5 -0.81882 0.167346
0 0.5 0.81882 0.161957
0.0124871 0.5 -0.81882 0.167346
0.0124871 0.5 0.81882 0.161957
0 0.5 -0.825 0.166943
0 0.5 0.825 0.161529
0.756814 0.5 -0.3375 0.234985
0.756814 0.5 0.3375 0.230351
0.67013 0.5 0.4875 0.208725
0.67013 0.5 -0.4875 0.214191
0.797732 0.5 0.225 0.243474
0.797732 0.5 -0.225 0.246937
0 0.5 -0.83118 0.166544
0 0.5 0.83118 0.161103
0.0124871 0.5 -0.83118 0.166544
0.0124871 0.5 0.83118 0.161103
0.835107 0.5 -0.0375 0.257625
0.835107 0.5 0.0375 0.256978
0.151149 0.5 -0.825 0.166914
0.151149 0.5 0.825 0.161429
0.835107 0.5 0.1125 0.254921
0.835107 0.5 -0.1125 0.256839
0.715434 0.5 -0.45 0.221869
0.715434 0.5 0.45 0.216399
0.797732 0.5 -0.3 0.24299
0.797732 0.5 0.3 0.238509
0.467897 0.5 0.7125 0.176481
0.467897 0.5 -0.7125 0.182288
0.523432 0.5 -0.675 0.188179
0.523432 0.5 0.675 0.182316
0.411736 0.5 0.75 0.171415
0.411736 0.5 -0.75 0.177205
0.835107 0.5 -0.1875 0.254636
0.835107 0.5 0.1875 0.251505
0.574156 0.5 0.6375 0.18837
0.574156 0.5 -0.6375 0.194275
0.350249 0.5 -0.7875 0.172318
0.350249 0.5 0.7875 0.166559
0.756814 0.5 -0.4125 0.229723
0.756814 0.5 0.4125 0.224288
0.0757758 0.5 -0.8625 0.164526
0.0757758 0.5 0.8625 0.158954
0.624316 0.5 -0.6 0.201089
0.624316 0.5 0.6 0.195108
0.872064 0.5 4.81386e-17 0.263903
0.870122 0.5 0.075 0.261965
0.288069 0.5 -0.825 0.168282
0.288069 0.5 0.825 0.162545
0.67013 0.5 -0.5625 0.208126
0.67013 0.5 0.5625 0.202089
0.872064 0.5 -0.075 0.263832
0.835107 0.5 -0.2625 0.25107
0.835107 0.5 0.2625 0.246809
0.797732 0.5 -0.375 0.237898
0.797732 0.5 0.375 0.232508
0.872064 0.5 0.14794 0.259523
0.872064 0.5 -0.15 0.262236
0.715434 0.5 0.525 0.209625
0.715434 0.5 -0.525 0.21573
0.219992 0.5 -0.8625 0.164414
0.219992 0.5 0.8625 0.158708
0 0.5 -0.89382 0.162413
0 0.5 0.89382 0.156725
0.0124871 0.5 -0.89382 0.162413
0.0124871 0.5 0.89382 0.156725
0 0.5 -0.9 0.161995
0 0.5 0.9 0.156284
0.756814 0.5 -0.4875 0.223567
0.756814 0.5 0.4875 0.217427
0.872064 0.5 -0.225 0.25915
0.872064 0.5 0.225 0.255187
0.835107 0.5 0.3375 0.240942
0.835107 0.5 -0.3375 0.246227
0 0.5 -0.90618 0.161579
0 0.5 0.90618 0.155845
0.0124871 0.5 -0.90618 0.161579
0.0124871 0.5 0.90618 0.155845
0.905821 0.5 0.0375 0.269907
0.905821 0.5 -0.0375 0.27065
0.151149 0.5 -0.9 0.161911
0.151149 0.5 0.9 0.156133
0.905821 0.5 -0.1125 0.269763
0.905821 0.5 0.1125 0.267561
0.523432 0.5 -0.75 0.182127
0.523432 0.5 0.75 0.175887
0.574156 0.5 -0.7125 0.188031
0.574156 0.5 0.7125 0.181718
0.797732 0.5 -0.45 0.231785
0.797732 0.5 0.45 0.225605
0.467897 0.5 0.7875 0.170294
0.467897 0.5 -0.7875 0.176452
0.624316 0.5 -0.675 0.194634
0.624316 0.5 0.675 0.18821
0.411736 0.5 -0.825 0.171558
0.411736 0.5 0.825 0.165442
0.872064 0.5 -0.3 0.254656
0.872064 0.5 0.3 0.249547
0.67013 0.5 0.6375 0.194972
0.67013 0.5 -0.6375 0.201493
0.905821 0.5 -0.1875 0.267261
0.905821 0.5 0.1875 0.263677
0.350249 0.5 -0.8625 0.166878
0.350249 0.5 0.8625 0.160814
0.835107 0.5 -0.4125 0.24023
0.835107 0.5 0.4125 0.234056
0.715434 0.5 -0.6 0.208929
0.715434 0.5 0.6 0.202288
0.939201 0.5 3.31766e-17 0.276731
0.0757758 0.5 -0.9375 0.15948
0.0757758 0.5 0.9375 0.15363
0.939112 0.5 0.075 0.274869
0.939201 0.5 -0.075 0.276669
0.756814 0.5 -0.5625 0.216646
0.756814 0.5 0.5625 0.209903
0.905821 0.5 0.2625 0.258348
0.905821 0.5 -0.2625 0.263205
0.288069 0.5 -0.9 0.162983
0.288069 0.5 0.9 0.15696
0.872064 0.5 -0.375 0.248867
0.872064 0.5 0.375 0.242745
0.939201 0.5 0.148627 0.271652
0.939201 0.5 -0.15 0.274882
0.797732 0.5 -0.525 0.224794
0.797732 0.5 0.525 0.217937
0.219992 0.5 -0.9375 0.159263
0.219992 0.5 0.9375 0.153287
0.939201 0.5 -0.225 0.27141
0.939201 0.5 0.225 0.266857
0.905821 0.5 -0.3375 0.257712
0.905821 0.5 0.3375 0.251707
0.835107 0.5 -0.4875 0.233228
0.835107 0.5 0.4875 0.226289
0 0.5 -0.96882 0.157308
0 0.5 0.96882 0.151357
0.0124871 0.5 -0.96882 0.157308
0.0124871 0.5 0.96882 0.151357
0.96969 0.5 -0.0375 0.283422
0.96969 0.5 0.0375 0.282563
0.574156 0.5 0.7875 0.174809
0.574156 0.5 -0.7875 0.181465
0 0.5 -0.975 0.156878
0 0.5 0.975 0.150907
0.624316 0.5 -0.75 0.187801
0.624316 0.5 0.75 0.181007
0.96969 0.5 -0.1125 0.282459
0.96969 0.5 0.1125 0.279904
0.523432 0.5 -0.825 0.175802
0.523432 0.5 0.825 0.169241
0.67013 0.5 -0.7125 0.194415
0.67013 0.5 0.7125 0.187491
0 0.5 -0.98118 0.15645
0 0.5 0.98118 0.150459
0.467897 0.5 -0.8625 0.170382
0.467897 0.5 0.8625 0.163922
0.0124871 0.5 -0.98118 0.15645
0.0124871 0.5 0.98118 0.150459
0.872064 0.5 0.45 0.23494
0.872064 0.5 -0.45 0.241931
0.715434 0.5 -0.675 0.201604
0.715434 0.5 0.675 0.194521
0.939201 0.5 0.3 0.260502
0.939201 0.5 -0.3 0.266344
0.151149 0.5 -0.975 0.156741
0.151149 0.5 0.975 0.150708
0.96969 0.5 -0.1875 0.279669
0.96969 0.5 0.1875 0.275525
0.756814 0.5 0.6375 0.201874
0.756814 0.5 -0.6375 0.209105
0.411736 0.5 -0.9 0.165711
0.411736 0.5 0.9 0.159314
0.905821 0.5 -0.4125 0.250919
0.905821 0.5 0.4125 0.243921
0.995005 0.5 0.0749309 0.286052
0.797732 0.5 -0.6 0.217076
0.797732 0.5 0.6 0.209666
1.00005 0.5 3.26706e-18 0.28923
0.350249 0.5 0.9375 0.154937
0.350249 0.5 -0.9375 0.161262
1.00005 0.5 -0.0749309 0.289172
0.96969 0.5 -0.2625 0.275138
0.96969 0.5 0.2625 0.269536
0.835107 0.5 -0.5625 0.22538
0.835107 0.5 0.5625 0.217807
1.00005 0.5 -0.149862 0.287173
0.939201 0.5 -0.375 0.25982
0.939201 0.5 0.375 0.252851
1.00029 0.5 0.148988 0.283434
0.0757758 0.5 -1.0125 0.154291
0.0757758 0.5 1.0125 0.148199
0.288069 0.5 -0.975 0.15753
0.288069 0.5 0.975 0.151261
0.872064 0.5 -0.525 0.234016
0.872064 0.5 0.525 0.226304
1.00005 0.5 0.224793 0.278119
1.00005 0.5 -0.224793 0.283275
0.96969 0.5 0.3375 0.262096
0.96969 0.5 -0.3375 0.268975
1.02709 0.5 0.0368226 0.295099
1.02709 0.5 -0.0368226 0.296052
0.905821 0.5 0.4875 0.235175
0.905821 0.5 -0.4875 0.242996
1.02709 0.5 -0.110468 0.295011
1.02709 0.5 0.110468 0.291968
0.67013 0.5 -0.7875 0.187012
0.67013 0.5 0.7875 0.17976
0.624316 0.5 -0.825 0.180698
0.624316 0.5 0.825 0.1736
0.219992 0.5 -1.0125 0.153975
0.219992 0.5 1.0125 0.147767
0.574156 0.5 -0.8625 0.174676
0.574156 0.5 0.8625 0.167733
0.715434 0.5 -0.75 0.193889
0.715434 0.5 0.75 0.186448
0.756814 0.5 -0.7125 0.201097
0.756814 0.5 0.7125 0.193473
0.523432 0.5 0.9 0.162459
0.523432 0.5 -0.9 0.16929
0.939201 0.5 0.45 0.244096
0.939201 0.5 -0.45 0.252016
1.04168 0.5 0 0.299331
1.02709 0.5 -0.184113 0.291945
1.02709 0.5 0.184113 0.287327
0 0.5 1.04382 0.145903
0 0.5 -1.04382 0.152081
0.0124871 0.5 -1.04382 0.152081
0.0124871 0.5 1.04382 0.145903
1.00005 0.5 -0.299723 0.277587
1.00005 0.5 0.299723 0.270992
1.04168 0.5 -0.0729162 0.299309
1.04168 0.5 0.0729162 0.297354
0.797732 0.5 -0.675 0.208795
0.797732 0.5 0.675 0.200953
0.467897 0.5 -0.9375 0.164154
0.467897 0.5 0.9375 0.157439
0 0.5 -1.05 0.151644
0 0.5 1.05 0.145449
0.835107 0.5 0.6375 0.208801
0.835107 0.5 -0.6375 0.216857
1.04168 0.5 -0.145832 0.297262
1.04168 0.5 0.145832 0.293423
0.96969 0.5 -0.4125 0.26135
0.96969 0.5 0.4125 0.253387
0 0.5 -1.05618 0.151209
0 0.5 1.05618 0.144997
0.0124871 0.5 -1.05618 0.151209
0.0124871 0.5 1.05618 0.144997
1.05694 0.5 -0.0360765 0.303506
1.05694 0.5 0.0360765 0.302521
0.411736 0.5 0.975 0.153096
0.411736 0.5 -0.975 0.159729
0.872064 0.5 -0.6 0.225299
0.872064 0.5 0.6 0.217033
1.02709 0.5 -0.257758 0.286967
1.02709 0.5 0.257758 0.280731
0.151149 0.5 -1.05 0.151458
0.151149 0.5 1.05 0.145205
1.05694 0.5 -0.108229 0.302498
1.05694 0.5 0.108229 0.300165
1.04168 0.5 -0.218749 0.293225
1.04168 0.5 0.218749 0.287653
0.905821 0.5 -0.5625 0.234144
0.905821 0.5 0.5625 0.225666
1.00005 0.5 -0.374654 0.270267
1.00005 0.5 0.374654 0.26243
0.350249 0.5 -1.0125 0.155532
0.350249 0.5 1.0125 0.148986
1.05694 0.5 -0.180382 0.299417
1.05694 0.5 0.180382 0.294609
1.07319 0.5 0.0709442 0.304705
0.939201 0.5 0.525 0.234447
0.939201 0.5 -0.525 0.24314
1.02709 0.5 -0.331404 0.280196
1.02709 0.5 0.331404 0.272548
1.08112 0.5 -3.98986e-18 0.309359
1.04168 0.5 -0.291665 0.287321
1.04168 0.5 0.291665 0.280194
1.08112 0.5 -0.0709442 0.309393
0.96969 0.5 -0.4875 0.252505
0.96969 0.5 0.4875 0.24364
1.05694 0.5 -0.252535 0.294407
1.05694 0.5 0.252535 0.287913
0.288069 0.5 -1.05 0.15198
0.288069 0.5 1.05 0.145502
0.0757758 0.5 -1.0875 0.149012
0.0757758 0.5 1.0875 0.142713
1.08112 0.5 -0.141888 0.307373
1.08145 0.5 0.140165 0.302916
0.715434 0.5 -0.825 0.185914
0.715434 0.5 0.825 0.178193
0.756814 0.5 -0.7875 0.192767
0.756814 0.5 0.7875 0.184837
0.67013 0.5 -0.8625 0.179401
0.67013 0.5 0.8625 0.171889
0.797732 0.5 0.75 0.191942
0.797732 0.5 -0.75 0.200115
0.624316 0.5 -0.9 0.173429
0.624316 0.5 0.9 0.166085
1.00005 0.5 -0.449585 0.261532
1.00005 0.5 0.449585 0.252661
0.835107 0.5 -0.7125 0.207844
0.835107 0.5 0.7125 0.199423
0.574156 0.5 -0.9375 0.167752
0.574156 0.5 0.9375 0.160574
1.10076 0.5 0.034981 0.314043
1.10076 0.5 -0.034981 0.315111
1.08112 0.5 -0.212833 0.303323
1.08112 0.5 0.212833 0.297368
0.872064 0.5 -0.675 0.215983
0.872064 0.5 0.675 0.207307
1.04168 0.5 -0.364581 0.279705
1.04168 0.5 0.364581 0.271239
1.02709 0.5 0.405049 0.262988
1.02709 0.5 -0.405049 0.271841
1.05694 0.5 -0.324688 0.287569
1.05694 0.5 0.324688 0.279608
1.10076 0.5 -0.104943 0.314187
1.10076 0.5 0.104943 0.310908
0.523432 0.5 -0.975 0.162669
0.523432 0.5 0.975 0.155617
0.905821 0.5 -0.6375 0.224538
0.905821 0.5 0.6375 0.215614
0.219992 0.5 -1.0875 0.148604
0.219992 0.5 1.0875 0.142199
1.11376 0.5 0 0.317982
0.939201 0.5 -0.6 0.233395
0.939201 0.5 0.6 0.224135
1.10076 0.5 -0.174905 0.31112
1.10076 0.5 0.174905 0.305841
0.467897 0.5 -1.0125 0.157837
0.467897 0.5 1.0125 0.150912
1.11376 0.5 -0.0693118 0.318075
1.11376 0.5 0.0693118 0.315845
1.08112 0.5 -0.283777 0.297365
1.08112 0.5 0.283777 0.289748
0 0.5 1.11882 0.14041
0 0.5 -1.11882 0.146783
0.0124871 0.5 -1.11882 0.146783
0.0124871 0.5 1.11882 0.14041
0.96969 0.5 -0.5625 0.242652
0.96969 0.5 0.5625 0.233081
1.11376 0.5 -0.138624 0.316082
1.11376 0.5 0.138624 0.311273
0 0.5 -1.125 0.146342
0 0.5 1.125 0.139955
1.10076 0.5 0.244867 0.298953
1.10076 0.5 -0.244867 0.306092
0.411736 0.5 -1.05 0.153678
0.411736 0.5 1.05 0.146847
1.05694 0.5 -0.396841 0.279108
1.05694 0.5 0.396841 0.2699
1.00005 0.5 -0.524516 0.251606
1.00005 0.5 0.524516 0.241936
1.04168 0.5 -0.437497 0.270593
1.04168 0.5 0.437497 0.261025
0 0.5 -1.13118 0.145903
0 0.5 1.13118 0.139501
0.0124871 0.5 -1.13118 0.145903
0.0124871 0.5 1.13118 0.139501
1.11376 0.5 -0.207935 0.312014
1.11376 0.5 0.207935 0.30564
1.02709 0.5 -0.478694 0.262125
1.02709 0.5 0.478694 0.252316
0.151149 0.5 -1.125 0.146107
0.151149 0.5 1.125 0.139667
1.08112 0.5 0.354721 0.280599
1.08112 0.5 -0.354721 0.289642
1.13882 0.5 0.0340295 0.324111
1.13882 0.5 -0.0340295 0.325252
0.350249 0.5 -1.0875 0.149747
0.350249 0.5 1.0875 0.143013
1.13882 0.5 -0.102088 0.324365
1.13882 0.5 0.102088 0.321046
1.10076 0.5 0.314829 0.290417
1.10076 0.5 -0.314829 0.299167
0.756814 0.5 -0.8625 0.184252
0.756814 0.5 0.8625 0.176096
0.797732 0.5 -0.825 0.191193
0.797732 0.5 0.825 0.18278
1.11376 0.5 -0.277247 0.305997
1.11376 0.5 0.277247 0.297839
0.835107 0.5 0.7875 0.189834
0.835107 0.5 -0.7875 0.198519
0.715434 0.5 -0.9 0.1778
0.715434 0.5 0.9 0.169868
0.872064 0.5 -0.75 0.206274
0.872064 0.5 0.75 0.197296
1.13882 0.5 0.170147 0.315606
1.13882 0.5 -0.170147 0.321272
0.67013 0.5 -0.9375 0.17169
0.67013 0.5 0.9375 0.163974
0.905821 0.5 -0.7125 0.214455
0.905821 0.5 0.7125 0.205188
1.05694 0.5 -0.468994 0.269237
1.05694 0.5 0.468994 0.259051
0.939201 0.5 -0.675 0.223013
0.939201 0.5 0.675 0.213378
0.624316 0.5 -0.975 0.166086
0.624316 0.5 0.975 0.158548
1.04168 0.5 -0.510414 0.260209
1.04168 0.5 0.510414 0.249813
0.96969 0.5 -0.6375 0.232017
0.96969 0.5 0.6375 0.221985
0.288069 0.5 -1.125 0.146377
0.288069 0.5 1.125 0.139724
1.16179 0.5 0 0.331384
1.08112 0.5 -0.425665 0.280359
1.08112 0.5 0.425665 0.270152
1.13882 0.5 0.238206 0.308495
1.13882 0.5 -0.238206 0.316161
1.16179 0.5 -0.0669104 0.331549
1.16179 0.5 0.0669104 0.329997
0.574156 0.5 1.0125 0.153408
0.574156 0.5 -1.0125 0.160774
0.0757758 0.5 1.1625 0.137211
0.0757758 0.5 -1.1625 0.143686
1.00005 0.5 -0.599447 0.240754
1.00005 0.5 0.599447 0.230518
1.10076 0.5 -0.384791 0.290546
1.10076 0.5 0.384791 0.280435
1.02709 0.5 -0.552339 0.251273
1.02709 0.5 0.552339 0.240791
1.11376 0.5 0.346559 0.288474
1.11376 0.5 -0.346559 0.298158
1.16179 0.5 -0.133821 0.32956
1.16179 0.5 0.133821 0.324831
0.523432 0.5 -1.05 0.156013
0.523432 0.5 1.05 0.148781
1.17463 0.5 -0.0331343 0.33543
1.17463 0.5 0.0331343 0.334227
1.17463 0.5 -0.099403 0.334616
1.17463 0.5 0.099403 0.33082
1.16179 0.5 -0.200731 0.325411
1.16179 0.5 0.200731 0.318462
1.13882 0.5 -0.306265 0.309087
1.13882 0.5 0.306265 0.299688
0.219992 0.5 -1.1625 0.14318
0.219992 0.5 1.1625 0.136608
0.467897 0.5 -1.0875 0.151499
0.467897 0.5 1.0875 0.144401
1.17463 0.5 -0.165672 0.331484
1.17463 0.5 0.165672 0.325396
1.05694 0.5 0.541147 0.247319
1.05694 0.5 -0.541147 0.258192
1.18772 0.5 0 0.338708
1.11376 0.5 -0.415871 0.288697
1.11376 0.5 0.415871 0.277774
1.18772 0.5 -0.065614 0.338929
1.18772 0.5 0.065614 0.336138
1.08112 0.5 -0.49661 0.269749
1.08112 0.5 0.49661 0.258666
1.10076 0.5 -0.454752 0.280431
1.10076 0.5 0.454752 0.269262
1.18534 0.5 0.118202 0.331892
1.16179 0.5 -0.267642 0.319236
1.16179 0.5 0.267642 0.310338
0 0.5 -1.19382 0.141457
0 0.5 1.19382 0.13492
1.04168 0.5 -0.58333 0.248824
1.04168 0.5 0.58333 0.237871
0.0124871 0.5 -1.19382 0.141457
0.0124871 0.5 1.19382 0.13492
1.18772 0.5 -0.131228 0.336967
1.17463 0.5 -0.23194 0.326303
1.17463 0.5 0.23194 0.318054
0.411736 0.5 -1.125 0.147613
0.411736 0.5 1.125 0.140621
1.13882 0.5 -0.374324 0.300246
1.13882 0.5 0.374324 0.289386
0 0.5 -1.2 0.141016
0 0.5 1.2 0.134467
0.905821 0.5 -0.7875 0.20408
0.905821 0.5 0.7875 0.194574
0.872064 0.5 -0.825 0.19635
0.872064 0.5 0.825 0.187174
0.835107 0.5 0.8625 0.180187
0.835107 0.5 -0.8625 0.18904
0.939201 0.5 -0.75 0.212234
0.939201 0.5 0.75 0.20236
0.797732 0.5 -0.9 0.182169
0.797732 0.5 0.9 0.173596
1.02709 0.5 -0.625985 0.239623
1.02709 0.5 0.625985 0.228685
0.96969 0.5 -0.7125 0.220845
0.96969 0.5 0.7125 0.210565
1.18772 0.5 -0.196842 0.332799
1.18772 0.5 0.196842 0.325438
0.756814 0.5 -0.9375 0.175674
0.756814 0.5 0.9375 0.167362
0 0.5 -1.20618 0.140577
0 0.5 1.20618 0.134016
1.00005 0.5 -0.674378 0.229246
1.00005 0.5 0.674378 0.218658
0.0124871 0.5 -1.20618 0.140577
0.0124871 0.5 1.20618 0.134016
1.16179 0.5 -0.334552 0.311147
1.16179 0.5 0.334552 0.300584
0.715434 0.5 -0.975 0.169656
0.715434 0.5 0.975 0.161572
0.151149 0.5 -1.2 0.14073
0.151149 0.5 1.2 0.134133
1.20942 0.5 -0.0322645 0.345952
1.20942 0.5 0.0322645 0.344743
1.17463 0.5 -0.298209 0.31908
1.17463 0.5 0.298209 0.308966
1.20942 0.5 -0.0967935 0.345212
1.20942 0.5 0.0967935 0.341141
0.350249 0.5 -1.1625 0.143941
0.350249 0.5 1.1625 0.137058
0.67013 0.5 1.0125 0.156102
0.67013 0.5 -1.0125 0.163969
1.11376 0.5 -0.485183 0.277859
1.11376 0.5 0.485183 0.265997
1.18772 0.5 -0.262456 0.326565
1.18772 0.5 0.262456 0.317135
1.10076 0.5 0.524714 0.257156
1.10076 0.5 -0.524714 0.2691
1.20942 0.5 -0.161322 0.342066
1.20942 0.5 0.161322 0.335552
1.08112 0.5 0.567554 0.246407
1.08112 0.5 -0.567554 0.258076
0.624316 0.5 -1.05 0.158751
0.624316 0.5 1.05 0.151065
1.13882 0.5 -0.442383 0.289834
1.13882 0.5 0.442383 0.277844
1.05694 0.5 0.6133 0.234976
1.05694 0.5 -0.6133 0.246271
1.16179 0.5 -0.401463 0.301342
1.16179 0.5 0.401463 0.289427
0.574156 0.5 1.0875 0.146303
0.574156 0.5 -1.0875 0.153817
1.17463 0.5 -0.364478 0.310027
1.17463 0.5 0.364478 0.298333
1.20942 0.5 0.225851 0.328002
1.20942 0.5 -0.225851 0.336838
1.23036 0.5 1.15648e-18 0.352102
1.2294 0.5 0.0634819 0.348997
1.04168 0.5 -0.656246 0.236759
1.04168 0.5 0.656246 0.225452
1.23036 0.5 -0.0634819 0.352397
1.18772 0.5 0.32807 0.307168
1.18772 0.5 -0.32807 0.318369
0.288069 0.5 1.2 0.133966
0.288069 0.5 -1.2 0.140764
1.23036 0.5 -0.126964 0.350455
1.23036 0.5 0.126964 0.34501
0.0757758 0.5 -1.2375 0.13836
0.0757758 0.5 1.2375 0.131737
0.523432 0.5 -1.125 0.149387
0.523432 0.5 1.125 0.142013
1.02709 0.5 0.69963 0.216236
1.02709 0.5 -0.69963 0.227444
1.24275 0.5 -0.0314313 0.356584
1.24275 0.5 0.0314313 0.355249
1.20942 0.5 -0.29038 0.329496
1.20942 0.5 0.29038 0.318659
1.11376 0.5 -0.554494 0.265916
1.11376 0.5 0.554494 0.253413
1.23036 0.5 -0.190446 0.346235
1.23036 0.5 0.190446 0.338341
1.24275 0.5 -0.0942939 0.355936
1.24275 0.5 0.0942939 0.351567
1.13882 0.5 -0.510442 0.27815
1.13882 0.5 0.510442 0.265328
0.96969 0.5 0.7875 0.198983
0.96969 0.5 -0.7875 0.209395
1.00005 0.5 0.749309 0.206573
1.00005 0.5 -0.749309 0.217354
0.939201 0.5 -0.825 0.201276
0.939201 0.5 0.825 0.191272
0.905821 0.5 -0.8625 0.193602
0.905821 0.5 0.8625 0.183972
1.17463 0.5 0.430746 0.286412
1.17463 0.5 -0.430746 0.299322
1.10076 0.5 0.594676 0.244397
1.10076 0.5 -0.594676 0.256805
1.18772 0.5 -0.393684 0.308406
1.18772 0.5 0.393684 0.295766
1.24275 0.5 -0.157157 0.352786
1.24275 0.5 0.157157 0.345812
1.16179 0.5 -0.468373 0.290066
1.16179 0.5 0.468373 0.277134
0.467897 0.5 -1.1625 0.145198
0.467897 0.5 1.1625 0.137964
0.872064 0.5 -0.9 0.186376
0.872064 0.5 0.9 0.177092
1.25401 0.5 0 0.359348
0.835107 0.5 -0.9375 0.179555
0.835107 0.5 0.9375 0.170608
1.25401 0.5 0.0622994 0.356716
1.25401 0.5 -0.0622994 0.359706
1.08112 0.5 0.638498 0.233643
1.08112 0.5 -0.638498 0.245654
1.23036 0.5 -0.253928 0.339882
1.23036 0.5 0.253928 0.329763
0.219992 0.5 -1.2375 0.137755
0.219992 0.5 1.2375 0.131041
1.2531 0.5 0.121964 0.352059
1.05694 0.5 -0.685453 0.233817
1.05694 0.5 0.685453 0.22226
0.797732 0.5 -0.975 0.173173
0.797732 0.5 0.975 0.164503
1.25401 0.5 -0.124599 0.357808
1.20942 0.5 -0.354909 0.320261
1.20942 0.5 0.354909 0.307723
1.24275 0.5 -0.220019 0.347527
1.24275 0.5 0.220019 0.338054
0.756814 0.5 -1.0125 0.167148
0.756814 0.5 1.0125 0.158732
1.25401 0.5 -0.186898 0.353589
1.25401 0.5 0.186898 0.345254
0.411736 0.5 -1.2 0.141579
0.411736 0.5 1.2 0.134461
0 0.5 -1.26882 0.136143
0 0.5 1.26882 0.129469
0.0124871 0.5 -1.26882 0.136143
0.0124871 0.5 1.26882 0.129469
0.715434 0.5 -1.05 0.161577
0.715434 0.5 1.05 0.153387
1.23036 0.5 -0.317409 0.331482
1.23036 0.5 0.317409 0.31946
1.04168 0.5 -0.729162 0.224306
1.04168 0.5 0.729162 0.212802
1.18772 0.5 -0.459298 0.296917
1.18772 0.5 0.459298 0.283194
1.24275 0.5 0.282882 0.328457
1.24275 0.5 -0.282882 0.340079
0 0.5 -1.275 0.135705
0 0.5 1.275 0.12902
1.27472 0.5 -0.0306319 0.367263
1.27472 0.5 0.0306319 0.365843
1.17463 0.5 -0.497015 0.28728
1.17463 0.5 0.497015 0.273478
1.11376 0.5 0.623806 0.240306
1.11376 0.5 -0.623806 0.253167
1.13882 0.5 -0.578501 0.265468
1.13882 0.5 0.578501 0.252122
0.67013 0.5 -1.0875 0.15632
0.67013 0.5 1.0875 0.148348
1.27472 0.5 0.0918957 0.360471
1.27472 0.5 -0.0918957 0.366675
1.25401 0.5 -0.249198 0.347204
1.25401 0.5 0.249198 0.336512
1.16179 0.5 -0.535283 0.277617
1.16179 0.5 0.535283 0.263981
1.20942 0.5 0.419438 0.295445
1.20942 0.5 -0.419438 0.309296
0 0.5 -1.28118 0.135268
0 0.5 1.28118 0.128573
0.0124871 0.5 -1.28118 0.135268
0.0124871 0.5 1.28118 0.128573
1.27472 0.5 -0.15316 0.363547
1.27472 0.5 0.15316 0.356122
0.151149 0.5 -1.275 0.13537
0.151149 0.5 1.275 0.128641
1.02709 0.5 -0.773275 0.215033
1.02709 0.5 0.773275 0.203687
1.10076 0.5 -0.664638 0.243904
1.10076 0.5 0.664638 0.231258
0.350249 0.5 1.2375 0.131159
0.350249 0.5 -1.2375 0.138163
0.624316 0.5 -1.125 0.151496
0.624316 0.5 1.125 0.1437
1.23036 0.5 -0.380891 0.321224
1.23036 0.5 0.380891 0.307652
1.24275 0.5 -0.345744 0.330671
1.24275 0.5 0.345744 0.317218
1.2906 0.5 0 0.372117
1.2906 0.5 -0.0604698 0.372584
1.2906 0.5 0.0604698 0.369447
1.25401 0.5 -0.311497 0.338722
1.25401 0.5 0.311497 0.326012
1.27472 0.5 -0.214423 0.358257
1.27472 0.5 0.214423 0.34817
1.08112 0.5 0.709442 0.220621
1.08112 0.5 -0.709442 0.23281
1.00005 0.5 -0.824239 0.205341
1.00005 0.5 0.824239 0.194484
1.2906 0.5 -0.12094 0.370762
1.2906 0.5 0.12094 0.364496
0.574156 0.5 1.1625 0.139315
0.574156 0.5 -1.1625 0.146943
0.96969 0.5 -0.8625 0.197899
0.96969 0.5 0.8625 0.18746
1.18772 0.5 -0.524912 0.284205
1.18772 0.5 0.524912 0.269734
1.05694 0.5 -0.757606 0.221112
1.05694 0.5 0.757606 0.209428
0.939201 0.5 0.9 0.180296
0.939201 0.5 -0.9 0.19033
1.30091 0.5 -0.0299772 0.376414
1.30091 0.5 0.0299772 0.374908
1.20942 0.5 -0.483967 0.296912
1.20942 0.5 0.483967 0.282109
1.17463 0.5 -0.563283 0.274183
1.17463 0.5 0.563283 0.259816
1.2906 0.5 -0.181409 0.366552
1.2906 0.5 0.181409 0.357463
0.905821 0.5 -0.9375 0.183183
0.905821 0.5 0.9375 0.173504
1.30091 0.5 -0.0899315 0.375884
1.30091 0.5 0.0899315 0.368932
1.27472 0.5 -0.275687 0.35072
1.27472 0.5 0.275687 0.338332
0.288069 0.5 -1.275 0.135184
0.288069 0.5 1.275 0.128268
0.872064 0.5 -0.975 0.176496
0.872064 0.5 0.975 0.167173
1.23036 0.5 -0.444373 0.30934
1.23036 0.5 0.444373 0.294607
1.24275 0.5 -0.408607 0.319452