# pMean  POINT_DATA 91129
# x  y  z  pMean
0 0 0 0.239155
0 0.00368111 0 0.238825
0 0.00749587 0 0.238107
0 0.0114491 0 0.237396
0 0.0155459 0 0.236753
0 0.0197915 0 0.236074
0 0.0241911 0 0.235305
0 0.0287506 0 0.234457
0 0.0334755 0 0.233559
0 0.038372 0 0.23263
0 0.0434463 0 0.23168
0 0.0487048 0 0.230719
0 0.0541543 0 0.229772
0 0.0598016 0 0.228886
0 0.0656539 0 0.228074
0 0.0717187 0 0.227296
0.0757758 0.00184056 0 0.239155
0.0757758 0.00558849 3.46945e-18 0.238495
0.0757758 0.0094725 0 0.237719
0.0757758 0.0134975 0 0.237072
0.0757758 0.0176687 0 0.236435
0 0.0780037 0 0.226512
0.0757758 0.0219913 0 0.235713
0.0757758 0.0264709 0 0.234897
0.0757758 0.031113 3.46945e-18 0.234017
0.0757758 0.0359238 -3.46945e-18 0.233101
0 0.0845169 0 0.225712
0.0757758 0.0409092 0 0.232159
0.0757758 0.0460756 0 0.231201
0 0.0912666 0 0.224898
0.0757758 0.0514296 3.46945e-18 0.230236
0.0757758 0.0569779 0 0.229308
0 0.0982613 0 0.224073
0.0757758 0.0627277 0 0.228464
0.0757758 0.0686863 0 0.227684
0 0.10551 0 0.223234
0.0757758 0.0748612 3.46945e-18 0.226908
0.0757758 0.0812603 3.46945e-18 0.226115
0 0.113022 0 0.22238
0.0757758 0.0878917 0 0.225308
0 0.120806 0 0.221509
0.0757758 0.0947639 -3.46945e-18 0.224488
0.0757758 0.101886 -3.46945e-18 0.223657
0 0.128874 0 0.220618
0.0757758 0.109266 0 0.222811
0 0.137234 0 0.219712
0.0757758 0.116914 -3.46945e-18 0.221949
0 0.145897 0 0.21881
0.0757758 0.12484 0 0.221068
0.151552 0 0 0.221655
0.151552 0.00368111 0 0.221528
0.151552 0.00749587 0 0.221282
0.151552 0.0114491 0 0.221085
0.151552 0.0155459 0 0.220923
0.151552 0.0197915 0 0.220736
0.0757758 0.133054 3.46945e-18 0.220167
0.151552 0.0241911 0 0.220499
0.151552 0.0287506 0 0.220218
0 0.154876 0 0.217943
0.151552 0.0334755 0 0.219905
0.151552 0.038372 0 0.219571
0.151552 0.0434463 0 0.219221
0.151552 0.0487048 0 0.21886
0.0757758 0.141566 0 0.219256
0.151552 0.0541543 0 0.2185
0.151552 0.0598016 0 0.218161
0 0.16418 0 0.217135
0.151552 0.0656539 0 0.21785
0.151552 0.0717187 0 0.217546
0.0757758 0.150387 0 0.218364
0.151552 0.0780037 0 0.21723
0.151552 0.0845169 0 0.216897
0 0.173822 0 0.216387
0.0757758 0.159528 3.46945e-18 0.217523
0.151552 0.0912666 0 0.216549
0.151552 0.0982613 0 0.216191
0 0.183814 0 0.215688
0.151552 0.10551 0 0.215825
0.0757758 0.169001 0 0.216746
0.151552 0.113022 0 0.215446
0.151552 0.120806 0 0.215048
0 0.194169 0 0.215014
0.0757758 0.178818 0 0.216028
0.151552 0.128874 0 0.214622
0.0757758 0.188991 3.46945e-18 0.215347
0.151552 0.137234 0 0.214169
0 0.2049 0 0.214346
0.151552 0.145897 0 0.213702
0.0757758 0.199534 -3.46945e-18 0.21468
0 0.21602 0 0.213668
0.151552 0.154876 0 0.21324
0.219992 0.00184056 -3.46945e-18 0.205501
0.219992 0.00558849 0 0.20562
0.219992 0.0094725 0 0.205882
0.219992 0.0134975 0 0.206174
0.219992 0.0176687 0 0.206447
0.219992 0.0219913 3.46945e-18 0.206707
0.219992 0.0264709 3.46945e-18 0.206957
0.219992 0.031113 0 0.20719
0.219992 0.0359238 0 0.207411
0.151552 0.16418 0 0.212796
0.0757758 0.21046 0 0.214012
0.219992 0.0409092 0 0.207621
0.219992 0.0460756 0 0.20782
0.219992 0.0514296 0 0.208007
0.219992 0.0569779 3.46945e-18 0.20818
0 0.227544 0 0.212955
0.219992 0.0627277 0 0.208339
0.219992 0.0686863 0 0.208483
0.151552 0.173822 0 0.21237
0.219992 0.0748612 -3.46945e-18 0.208608
0.0757758 0.221782 0 0.213323
0.219992 0.0812603 0 0.208715
0.219992 0.0878917 0 0.208804
0.151552 0.183814 0 0.211956
7.47804e-17 0.239487 0 0.212188
0.219992 0.0947639 0 0.20888
0.219992 0.101886 0 0.208951
0.0757758 0.233515 0 0.212585
0.219992 0.109266 0 0.209018
0.151552 0.194169 0 0.21154
0.219992 0.116914 -3.46945e-18 0.209072
0 0.251863 0 0.211375
0.219992 0.12484 0 0.209095
0.151552 0.2049 0 0.211112
0.0757758 0.245675 3.46945e-18 0.21179
0.219992 0.133054 0 0.209079
0.219992 0.141566 0 0.209026
0.151552 0.21602 0 0.210664
0 0.264688 0 0.210537
0.219992 0.150387 0 0.208946
0.0757758 0.258276 3.46945e-18 0.21096
0.219992 0.159528 0 0.208848
0.151552 0.227544 0 0.210182
0.219992 0.169001 0 0.208731
0 0.27798 0 0.209684
0.0757758 0.271334 0 0.210114
0.151552 0.239487 3.70074e-18 0.209657
0.219992 0.178818 0 0.208592
0.288433 0 0 0.209576
0.288433 0.00368111 0 0.209618
0.288433 0.00749587 0 0.209749
0.288433 0.0114491 0 0.209936
0.288433 0.0155459 3.70074e-18 0.210133
0.288433 0.0197915 0 0.210326
0.288433 0.0241911 3.70074e-18 0.210518
0.288433 0.0287506 0 0.210704
0.219992 0.188991 0 0.208428
0.288433 0.0334755 0 0.210883
0.288433 0.038372 0 0.211056
0.288433 0.0434463 0 0.211223
7.47804e-17 0.291753 0 0.208813
0.288433 0.0487048 0 0.211382
0.288433 0.0541543 0 0.211533
0.151552 0.251863 0 0.209091
0.288433 0.0598016 3.70074e-18 0.211675
0.0757758 0.284866 -3.46945e-18 0.209253
0.288433 0.0656539 3.70074e-18 0.211806
0.219992 0.199534 0 0.208236
0.288433 0.0717187 0 0.211928
0.288433 0.0780037 0 0.21204
0.288433 0.0845169 0 0.21214
0.288433 0.0912666 0 0.212222
0.219992 0.21046 0 0.208016
0.288433 0.0982613 0 0.212287
0.151552 0.264688 3.70074e-18 0.208496
0 0.306027 0 0.207914
0.288433 0.10551 0 0.212337
0.0757758 0.29889 -3.46945e-18 0.208371
0.288433 0.113022 0 0.212373
0.219992 0.221782 0 0.207764
0.288433 0.120806 0 0.212391
0.288433 0.128874 0 0.212389
0.151552 0.27798 0 0.20788
0.288433 0.137234 0 0.212364
0 0.320819 0 0.206977
0.219992 0.233515 0 0.207479
0.0757758 0.313423 0 0.207457
0.288433 0.145897 0 0.212315
0.288433 0.154876 0 0.212242
0.151552 0.291753 0 0.207242
0.219992 0.245675 0 0.20716
0.288433 0.16418 0 0.212147
0 0.336148 0 0.20601
0.288433 0.173822 0 0.21203
0.0757758 0.328484 0 0.206497
0.219992 0.258276 0 0.206805
0.151552 0.306027 0 0.206573
0.288433 0.183814 0 0.211888
0.288433 0.194169 0 0.211719
0.219992 0.271334 -3.46945e-18 0.206418
0.350249 0.00184056 0 0.213351
0.350249 0.00558849 0 0.213405
0.350249 0.0094725 0 0.213499
0.350249 0.0134975 0 0.213613
0.350249 0.0176687 3.46945e-18 0.213735
0.350249 0.0219913 0 0.213865
0.350249 0.0264709 -3.46945e-18 0.214
0.350249 0.031113 -3.46945e-18 0.214135
0 0.352034 0 0.205053
0.350249 0.0359238 3.46945e-18 0.214269
0.0757758 0.344091 0 0.205522
0.350249 0.0409092 0 0.214402
0.350249 0.0460756 0 0.214533
0.288433 0.2049 0 0.211522
0.350249 0.0514296 0 0.214659
0.151552 0.320819 0 0.205862
0.350249 0.0569779 3.46945e-18 0.214781
0.350249 0.0627277 0 0.214897
0.350249 0.0686863 0 0.215008
0.350249 0.0748612 3.46945e-18 0.215117
0.350249 0.0812603 0 0.215225
0.219992 0.284866 0 0.206009
0.288433 0.21602 0 0.211294
0.350249 0.0878917 0 0.21532
0.350249 0.0947639 0 0.215389
0.350249 0.101886 0 0.215433
0.350249 0.109266 3.46945e-18 0.215456
0.288433 0.227544 0 0.211034
0.0757758 0.360265 0 0.204583
0 0.368496 0 0.204116
0.151552 0.336148 0 0.205109
0.350249 0.116914 3.46945e-18 0.215459
0.219992 0.29889 0 0.205573
0.370854 0.0241911 0 0.21673
0.350249 0.12484 0 0.215453
0.350249 0.133054 3.46945e-18 0.215444
0.288433 0.239487 -9.25186e-19 0.21074
0.350249 0.141566 -3.46945e-18 0.215422
0.350249 0.150387 0 0.215377
0.288433 0.251863 0 0.210409
0.219992 0.313423 0 0.205097
0.151552 0.352034 0 0.204331
0.0757758 0.377026 -3.46945e-18 0.203647
0.350249 0.159528 3.46945e-18 0.215306
0 0.385557 0 0.203148
0.350249 0.169001 3.46945e-18 0.215211
0.288433 0.264688 0 0.210043
0.350249 0.178818 0 0.215092
0.219992 0.328484 0 0.204569
0.350249 0.188991 0 0.214946
0.151552 0.368496 0 0.203536
0.288433 0.27798 3.70074e-18 0.209644
0.0757758 0.394396 -3.46945e-18 0.202648
0.350249 0.199534 3.46945e-18 0.214772
7.47804e-17 0.403236 0 0.202112
0.219992 0.344091 0 0.203984
0.350249 0.21046 0 0.214568
0.288433 0.291753 0 0.209213
0.412065 9.0819e-19 0 0.219449
0.412065 0.00368111 -2.31296e-18 0.219468
0.412065 0.00749587 -2.31296e-18 0.21952
0.412065 0.0114491 -2.31296e-18 0.21959
0.412065 0.0155459 -2.31296e-18 0.219669
0.412065 0.0197915 0 0.219751
0.412065 0.0241911 0 0.219836
0.412065 0.0264709 0 0.219879
0.412065 0.0287506 -2.31296e-18 0.219923
0.412065 0.0334755 -2.31296e-18 0.220013
0.412065 0.038372 -2.31296e-18 0.220105
0.151552 0.385557 0 0.202702
0.412065 0.0434463 0 0.220198
0.350249 0.221782 0 0.214332
0.412065 0.0487048 0 0.220291
0.412065 0.0541543 0 0.220383
0.412065 0.0569779 0 0.220428
0.412065 0.0598016 -2.31296e-18 0.220473
0.412065 0.0656539 -2.31296e-18 0.220561
0.412065 0.0717187 -2.31296e-18 0.220643
0.0757758 0.412397 0 0.201575
0.412065 0.0780037 -2.31296e-18 0.220714
0.288433 0.306027 0 0.208745
0.412065 0.0845169 -2.31296e-18 0.220762
0.350249 0.233515 0 0.214062
0 0.421557 0 0.201012
0.412065 0.0912666 -2.31296e-18 0.220784
0.219992 0.360265 -3.46945e-18 0.203345
0.412065 0.0982613 0 0.220785
0.412065 0.10551 0 0.22077
0.412065 0.113022 -2.31296e-18 0.22074
0.350249 0.245675 3.46945e-18 0.213757
0.412065 0.120806 0 0.220695
0.151552 0.403236 0 0.201807
0.288433 0.320819 0 0.208233
0.412065 0.128874 -2.31296e-18 0.220639
0.412065 0.137234 0 0.220572
0.350249 0.258276 3.46945e-18 0.213415
0.219992 0.377026 0 0.202657
0.412065 0.145897 -2.31296e-18 0.22049
0.0757758 0.431051 0 0.200447
0.412065 0.154876 -2.31296e-18 0.220389
0 0.440544 0 0.199864
0.288433 0.336148 0 0.20767
0.350249 0.271334 0 0.213034
0.412065 0.16418 -2.31296e-18 0.220267
0.412065 0.173822 -2.31296e-18 0.220124
0.151552 0.421557 0 0.200852
0.412065 0.183814 -2.31296e-18 0.219958
0.350249 0.284866 0 0.212614
0.219992 0.394396 0 0.201921
0.288433 0.352034 3.70074e-18 0.207054
0.412065 0.194169 0 0.219767
0.0757758 0.450382 0 0.199279
0.412065 0.2049 -2.31296e-18 0.21955
0 0.46022 0 0.198676
0.350249 0.29889 0 0.212156
0.412065 0.21602 0 0.219304
0.151552 0.440544 0 0.199843
0.219992 0.412397 3.46945e-18 0.20113
0.467897 0.00184056 -3.46945e-18 0.225121
0.467897 0.00558849 0 0.225146
0.288433 0.368496 0 0.206386
0.467897 0.0094725 0 0.225183
0.467897 0.0134975 3.46945e-18 0.225225
0.467897 0.0176687 3.46945e-18 0.225266
0.467897 0.0219913 -3.46945e-18 0.225306
0.467897 0.0264709 -3.46945e-18 0.225348
0.467897 0.031113 3.46945e-18 0.225395
0.467897 0.0359238 0 0.225445
0.467897 0.038372 0 0.226136
0.467897 0.0409092 0 0.2255
0.350249 0.313423 0 0.211656
0.467897 0.0460756 0 0.225558
0.467897 0.0514296 3.46945e-18 0.225619
0.412065 0.227544 -2.31296e-18 0.219027
0.467897 0.0569779 0 0.225683
0.467897 0.0627277 -3.46945e-18 0.225747
0.467897 0.0686863 0 0.22581
0.467897 0.0748612 3.46945e-18 0.225861
0.467897 0.0812603 3.46945e-18 0.225881
0.467897 0.0878917 3.46945e-18 0.225859
0.0757758 0.470415 3.46945e-18 0.198071
0.412065 0.239487 -2.31296e-18 0.218717
0.467897 0.0947639 0 0.225813
0.467897 0.101886 3.46945e-18 0.225758
0.350249 0.328484 0 0.211112
0.467897 0.109266 3.46945e-18 0.225694
0 0.48061 0 0.197445
0.288433 0.385557 0 0.205665
0.467897 0.116914 3.46945e-18 0.225617
0.412065 0.251863 -2.31296e-18 0.218373
0.219992 0.431051 0 0.20028
0.467897 0.12484 0 0.225524
0.151552 0.46022 0 0.198782
0.467897 0.133054 0 0.225415
0.467897 0.141566 -3.46945e-18 0.225294
0.412065 0.264688 -2.31296e-18 0.217991
0.350249 0.344091 0 0.21052
0.467897 0.150387 0 0.22516
0.467897 0.154876 0 0.225846
0.467897 0.159528 0 0.225011
0.288433 0.403236 0 0.204888
0.0757758 0.491176 3.46945e-18 0.196817
0.412065 0.27798 -2.31296e-18 0.21757
0.467897 0.169001 0 0.224844
0.467897 0.178818 -3.46945e-18 0.224658
0.219992 0.450382 3.46945e-18 0.199367
6.73024e-17 0.501741 3.70074e-18 0.196166
0.350249 0.360265 0 0.209875
0.151552 0.48061 0 0.197668
0.467897 0.188991 0 0.22445
0.412065 0.291753 0 0.217108
0.467897 0.199534 0 0.224219
0.288433 0.421557 0 0.204052
0.467897 0.21046 3.46945e-18 0.223963
0.412065 0.306027 0 0.216605
0.350249 0.377026 0 0.209174
0.467897 0.221782 0 0.223679
0.0757758 0.51269 0 0.195513
0.219992 0.470415 0 0.198393
0.467897 0.227544 0 0.224247
0.412065 0.320819 -2.31296e-18 0.216055
0.467897 0.233515 0 0.223365
6.73024e-17 0.523639 3.70074e-18 0.194836
0.523729 0 0 0.231935
0.523729 0.00368111 0 0.231945
0.523729 0.00749587 -2.31296e-18 0.231971
0.523729 0.0114491 0 0.232003
0.523729 0.0155459 0 0.232034
0.523729 0.0197915 -2.31296e-18 0.23206
0.151552 0.501741 0 0.196496
0.523729 0.0241911 0 0.232083
0.523729 0.0287506 0 0.232108
0.523729 0.0334755 0 0.232136
0.523729 0.038372 0 0.232167
0.523729 0.0434463 0 0.232201
0.523729 0.0487048 0 0.232238
0.523729 0.0541543 0 0.232277
0.288433 0.440544 0 0.203153
0.523729 0.0598016 0 0.232319
0.350249 0.394396 0 0.208416
0.523729 0.0656539 0 0.232361
0.467897 0.245675 3.46945e-18 0.223019
0.523729 0.0717187 0 0.232394
0.523729 0.0780037 0 0.232398
0.523729 0.0845169 0 0.232362
0.523729 0.0912666 0 0.232297
0.412065 0.336148 0 0.215458
0.523729 0.0982613 0 0.232217
0.523729 0.10551 -2.31296e-18 0.232127
0.467897 0.258276 3.46945e-18 0.222637
0.523729 0.113022 0 0.232027
0.523729 0.120806 0 0.231912
0.219992 0.491176 3.46945e-18 0.197356
0.523729 0.12484 0 0.231848
0.523729 0.128874 -2.31296e-18 0.231783
0.0757758 0.534985 -3.46945e-18 0.194157
0.467897 0.271334 0 0.222218
0.350249 0.412397 3.46945e-18 0.207598
0.523729 0.137234 0 0.231639
0.412065 0.352034 -2.31296e-18 0.214808
0.288433 0.46022 0 0.202189
0.523729 0.145897 0 0.23148
0.151552 0.523639 0 0.195261
0.523729 0.154876 0 0.231304
0 0.546332 0 0.193452
0.523729 0.159528 0 0.231208
0.467897 0.284866 3.46945e-18 0.221757
0.523729 0.16418 -2.31296e-18 0.231111
0.523729 0.173822 0 0.230898
0.412065 0.368496 0 0.214103
0.523729 0.183814 0 0.230663
0.467897 0.29889 -3.46945e-18 0.221254
0.350249 0.431051 0 0.206716
0.219992 0.51269 3.46945e-18 0.196248
0.523729 0.194169 0 0.230404
0.288433 0.48061 0 0.201157
0.523729 0.2049 0 0.23012
0.467897 0.313423 0 0.220704
0.0757758 0.55809 0 0.192745
0.412065 0.385557 0 0.21334
0.523729 0.21602 0 0.229808
0.151552 0.546332 0 0.193958
0 0.569849 0 0.192009
0.350249 0.450382 0 0.205767
0.523729 0.227544 0 0.229467
0.467897 0.328484 0 0.220105
0.523729 0.231525 0 0.229342
0.574156 0.00184056 0 0.238301
0.574156 0.00558849 0 0.238318
0.574156 0.0094725 0 0.238343
0.574156 0.0134975 0 0.238369
0.574156 0.0176687 0 0.238386
0.574156 0.0219913 3.46945e-18 0.238393
0.574156 0.0264709 0 0.238398
0.574156 0.031113 0 0.238407
0.574156 0.0359238 3.46945e-18 0.238417
0.574156 0.0409092 -3.46945e-18 0.238429
0.523729 0.239487 3.70074e-18 0.229093
0.574156 0.0460756 3.46945e-18 0.238443
0.574156 0.0514296 0 0.23846
0.412065 0.403236 0 0.212517
0.574156 0.0569779 0 0.23848
0.574156 0.0627277 0 0.238502
0.574156 0.0686863 0 0.238523
0.219992 0.534985 0 0.195061
0.288433 0.501741 0 0.200054
0.574156 0.0748612 0 0.238522
0.574156 0.0812603 0 0.238473
0.467897 0.344091 3.46945e-18 0.219454
0.574156 0.0878917 0 0.238386
0.523729 0.251863 0 0.228686
0.574156 0.0947639 -3.46945e-18 0.238283
0.574156 0.101886 0 0.238171
0.574156 0.109266 3.46945e-18 0.238049
0.574156 0.116914 -3.46945e-18 0.237914
0.412065 0.416977 0 0.211851
0.350249 0.470415 0 0.204748
0.523729 0.264688 0 0.228241
0.0757758 0.582034 0 0.191271
0.574156 0.12484 0 0.237766
0.574156 0.133054 0 0.237602
0.412065 0.421557 -2.31296e-18 0.211629
0.151552 0.569849 0 0.192583
0.467897 0.360265 0 0.218749
0.574156 0.141566 -3.46945e-18 0.237422
0.523729 0.27798 0 0.227756
0.574156 0.150387 -3.46945e-18 0.237225
0 0.594219 0 0.190502
0.574156 0.159528 0 0.237009
0.574156 0.16418 0 0.237524
0.288433 0.523639 9.24446e-33 0.198873
0.574156 0.169001 -3.46945e-18 0.236773
0.523729 0.291753 0 0.227229
0.219992 0.55809 -3.46945e-18 0.193791
0.467897 0.377026 0 0.217985
0.574156 0.178818 -3.46945e-18 0.236514
0.412065 0.440544 -2.31296e-18 0.210674
0.350249 0.491176 3.46945e-18 0.203655
0.574156 0.188991 0 0.236232
0.523729 0.306027 0 0.226657
0.574156 0.199534 0 0.235924
0.574156 0.21046 0 0.235588
0.0757758 0.606847 0 0.18973
0.467897 0.394396 3.46945e-18 0.217161
0.151552 0.594219 0 0.191132
0.523729 0.320819 0 0.226037
0.574156 0.221782 -3.46945e-18 0.235223
0.412065 0.46022 0 0.209648
0.288433 0.546332 0 0.19761
0 0.619475 0 0.188925
0.574156 0.233515 0 0.234826
0.350249 0.51269 3.46945e-18 0.202485
0.219992 0.582034 0 0.192437
0.523729 0.336148 0 0.225365
0.467897 0.412397 0 0.216272
0.574156 0.245675 3.46945e-18 0.234396
0.624584 0 0 0.245913
0.624584 0.00368111 0 0.245921
0.624584 0.00749587 0 0.24594
0.624584 0.0114491 0 0.245966
0.624584 0.0155459 0 0.245986
0.624584 0.0197915 0 0.245993
0.624584 0.0241911 -2.31296e-18 0.24599
0.624584 0.0287506 0 0.245984
0.624584 0.0334755 0 0.245979
0.624584 0.038372 0 0.245976
0.624584 0.0434463 -2.31296e-18 0.245974
0.624584 0.0487048 0 0.245974
0.624584 0.0541543 0 0.245974
0.624584 0.0598016 0 0.245976
0.624584 0.0656539 0 0.245974
0.624584 0.0717187 0 0.245955
0.624584 0.0780037 0 0.245898
0.574156 0.258276 0 0.233929
0.624584 0.0845169 0 0.2458
0.523729 0.352034 0 0.22464
0.624584 0.0912666 0 0.245679
0.624584 0.0982613 0 0.245545
0.412065 0.48061 0 0.208548
0.624584 0.10551 0 0.2454
0.624584 0.113022 -2.31296e-18 0.245241
0.574156 0.271334 0 0.233423
0.624584 0.120806 0 0.245068
0.467897 0.431051 0 0.215316
0.0757758 0.632561 3.46945e-18 0.188117
0.624584 0.128874 0 0.244879
0.151552 0.619475 0 0.189602
0.288433 0.569849 0 0.196262
0.350249 0.534985 0 0.201233
0.624584 0.137234 -2.31296e-18 0.244672
0.523729 0.368496 0 0.223857
0.574156 0.284866 -3.46945e-18 0.232876
0.624584 0.145897 0 0.244448
0.467897 0.440544 0 0.215379
0.624584 0.154876 0 0.244203
0.219992 0.606847 0 0.190995
0 0.645647 0 0.187274
0.624584 0.16418 0 0.243938
0.574156 0.29889 0 0.232285
0.624584 0.173822 0 0.24365
0.412065 0.501741 0 0.207371
0.467897 0.450382 0 0.214289
0.523729 0.385557 0 0.223014
0.624584 0.183814 0 0.243337
0.624584 0.194169 0 0.242999
0.574156 0.313423 3.46945e-18 0.231648
0.624584 0.2049 0 0.242633
0.350249 0.55809 3.46945e-18 0.199897
0.288433 0.594219 0 0.194826
0.624584 0.21602 0 0.242236
0.523729 0.403236 0 0.222106
0.574156 0.328484 -3.46945e-18 0.23096
0.151552 0.645647 0 0.187988
0.467897 0.470415 0 0.213187
0.0757758 0.659208 3.46945e-18 0.186428
0.624584 0.227544 0 0.241808
0.412065 0.523639 0 0.206111
0.523729 0.41545 0 0.221456
0.624584 0.239487 3.70074e-18 0.241346
0.574156 0.344091 0 0.230219
0.219992 0.632561 -3.46945e-18 0.189462
0.67013 0.00184056 3.46945e-18 0.253059
0.67013 0.00558849 -3.46945e-18 0.253074
0.67013 0.0094725 3.46945e-18 0.253097
0.67013 0.0134975 -3.46945e-18 0.253124
0.67013 0.0176687 0 0.253136
0.67013 0.0219913 0 0.253129
0.67013 0.0264709 3.46945e-18 0.253111
0.67013 0.031113 0 0.253093
0.67013 0.0359238 -3.46945e-18 0.253077
0.67013 0.0409092 0 0.25306
0.67013 0.0460756 0 0.253045
0.67013 0.0514296 -3.46945e-18 0.253029
0.523729 0.421557 0 0.221131
0.67013 0.0569779 0 0.253012
0 0.67277 0 0.185544
0.67013 0.0627277 3.46945e-18 0.252994
0.624584 0.251863 0 0.240848
0.67013 0.0686863 0 0.252966
0.67013 0.0748612 -3.46945e-18 0.252902
0.67013 0.0812603 0 0.252791
0.67013 0.0878917 0 0.252651
0.67013 0.0947639 0 0.252499
0.574156 0.360265 3.46945e-18 0.229421
0.67013 0.101886 3.46945e-18 0.252335
0.523729 0.431051 0 0.220608
0.624584 0.264688 0 0.24031
0.467897 0.491176 0 0.212008
0.67013 0.109266 3.46945e-18 0.252156
0.350249 0.582034 0 0.198471
0.67013 0.116914 -3.46945e-18 0.251961
0.67013 0.12484 0 0.25175
0.67013 0.133054 -3.46945e-18 0.25152
0.288433 0.619475 0 0.193296
0.624584 0.27798 0 0.239732
0.412065 0.546332 0 0.204765
0.523729 0.440544 0 0.220084
0.67013 0.141566 0 0.251272
0.685312 0.0241911 0 0.256247
0.685312 0.0434463 0 0.256149
0.67013 0.150387 0 0.251003
0.574156 0.377026 0 0.228564
0.67013 0.159528 0 0.250713
0.624584 0.291753 0 0.23911
0.151552 0.67277 0 0.186286
0.0757758 0.686823 0 0.184656
0.67013 0.169001 -3.46945e-18 0.250399
0.67013 0.178818 0 0.250061
0.467897 0.51269 3.46945e-18 0.210746
0.685312 0.113022 0 0.255032
0.219992 0.659208 0 0.187835
0.624584 0.306027 0 0.238441
0.67013 0.188991 0 0.249696
0.574156 0.394396 -3.46945e-18 0.227643
0.523729 0.46022 0 0.218963
0.685312 0.137234 0 0.254325
0.67013 0.199534 3.46945e-18 0.249303
0.350249 0.606847 3.46945e-18 0.196953
0 0.700877 0 0.183729
0.624584 0.320819 0 0.237722
0.67013 0.21046 -3.46945e-18 0.24888
0.412065 0.569849 -2.31296e-18 0.203329
0.67013 0.221782 0 0.248425
0.574156 0.412397 -3.46945e-18 0.226654
0.288433 0.645647 0 0.191671
0.624584 0.336148 0 0.23695
0.67013 0.233515 -3.46945e-18 0.247936
0.467897 0.534985 0 0.209398
0.523729 0.48061 0 0.217763
0.624584 0.344091 0 0.236536
0.67013 0.245675 0 0.24741
0.715676 4.54095e-19 -1.54074e-33 0.261334
0.715676 0.00368111 0 0.261341
0.715676 0.00749587 0 0.261359
0.715676 0.0114491 -1.54074e-33 0.261384
0.715676 0.0155459 0 0.261402
0.715676 0.0197915 0 0.261399
0.715676 0.0241911 0 0.261375
0.715676 0.0287506 0 0.261343
0.715676 0.0334755 0 0.261308
0.715676 0.038372 0 0.261273
0.624584 0.352034 -2.31296e-18 0.236122
0.715676 0.0434463 0 0.261237
0.151552 0.700877 0 0.184492
0.715676 0.0487048 0 0.2612
0.715676 0.0541543 0 0.261162
0.574156 0.431051 -3.46945e-18 0.225594
0.715676 0.0598016 0 0.261122
0.67013 0.258276 0 0.246846
0.715676 0.0656539 0 0.261073
0.715676 0.0717187 0 0.260996
0.0757758 0.715441 0 0.182798
0.715676 0.0780037 0 0.260875
0.715676 0.0845169 0 0.260719
0.219992 0.686823 0 0.186111
0.715676 0.0912666 0 0.260543
0.715676 0.0982613 0 0.260354
0.67013 0.271334 0 0.246241
0.350249 0.632561 3.46945e-18 0.195336
0.412065 0.594219 -2.31296e-18 0.201798
0.715676 0.10551 0 0.260149
0.715676 0.113022 0 0.259927
0.624584 0.368496 0 0.235234
0.523729 0.501741 0 0.216479
0.715676 0.120806 0 0.259688
0.715676 0.128874 0 0.25943
0.67013 0.284866 0 0.245592
0.467897 0.55809 3.46945e-18 0.207959
0.715676 0.137234 0 0.259151
0.574156 0.450382 0 0.224459
0 0.730005 0 0.181824
0.715676 0.145897 0 0.258852
0.288433 0.67277 0 0.189946
0.715676 0.154876 0 0.25853
0.67013 0.29889 3.46945e-18 0.244896
0.624584 0.385557 0 0.234283
0.715676 0.16418 0 0.258184
0.715676 0.173822 0 0.257812
0.715676 0.183814 0 0.257414
0.67013 0.313423 0 0.244151
0.523729 0.523639 0 0.215108
0.715676 0.194169 0 0.256986
0.574156 0.470415 3.46945e-18 0.223245
0.624584 0.403236 0 0.233265
0.743101 0.0241911 0 0.266894
0.412065 0.619475 -2.31296e-18 0.200168
0.715676 0.2049 0 0.256528
0.151552 0.730005 0 0.1826
0.67013 0.328484 0 0.243354
0.350249 0.659208 -3.46945e-18 0.193618
0.467897 0.582034 0 0.206424
0.715676 0.21602 0 0.256038
0.219992 0.715441 0 0.184285
0.0757758 0.745098 3.46945e-18 0.180846
0.715676 0.227544 0 0.255512
0.67013 0.344091 0 0.242501
0.624584 0.421557 0 0.232175
0.743101 0.128874 0 0.264597
0.715676 0.239487 3.70074e-18 0.254951
0.574156 0.491176 3.46945e-18 0.221947
0.523729 0.546332 0 0.213644
0.756814 0.00184056 0 0.269141
0.756814 0.00558849 0 0.269155
0.756814 0.0094725 0 0.269178
0.756814 0.0134975 3.46945e-18 0.269205
0.756814 0.0155459 0 0.269698
0.756814 0.0176687 -3.46945e-18 0.269211
0.756814 0.0219913 -3.46945e-18 0.269187
0.756814 0.0264709 3.46945e-18 0.269143
0.756814 0.031113 -3.46945e-18 0.269094
0.756814 0.0359238 -3.46945e-18 0.269042
0.288433 0.700877 0 0.188116
0.756814 0.0409092 0 0.268987
0.756814 0.0460756 -3.46945e-18 0.268931
0.756814 0.0514296 -3.46945e-18 0.268873
0.715676 0.251863 0 0.25435
0.756814 0.0569779 0 0.268814
0.756814 0.0627277 3.46945e-18 0.268751
0.756814 0.0686863 0 0.268668
0 0.76019 0 0.179824
0.756814 0.0748612 0 0.268538
0.67013 0.360265 0 0.241588
0.756814 0.0812603 0 0.268364
0.756814 0.0878917 0 0.268168
0.756814 0.0947639 -3.46945e-18 0.267957
0.715676 0.264688 0 0.253709
0.756814 0.101886 -3.46945e-18 0.26773
0.624584 0.440544 0 0.23101
0.756814 0.109266 -3.46945e-18 0.267485
0.756814 0.116914 -3.46945e-18 0.267222
0.412065 0.645647 0 0.198434
0.467897 0.606847 0 0.204789
0.756814 0.120806 0 0.267481
0.756814 0.12484 3.46945e-18 0.266938
0.715676 0.27798 -1.54074e-33 0.253023
0.756814 0.133054 3.46945e-18 0.266634
0.67013 0.377026 3.46945e-18 0.240613
0.756814 0.137234 0 0.266859
0.574156 0.51269 0 0.220561
0.756814 0.141566 0 0.266308
0.685312 0.352034 0 0.244602
0.743101 0.2049 0 0.261439
0.350249 0.686823 0 0.191793
0.756814 0.150387 0 0.265958
0.756814 0.154876 0 0.266146
0.715676 0.291753 -6.16298e-33 0.252292
0.756814 0.159528 0 0.265584
0.523729 0.569849 0 0.212084
0.72743 0.264688 0 0.255735
0.756814 0.16418 0 0.265753
0.151552 0.76019 3.70074e-18 0.180607
0.756814 0.169001 3.46945e-18 0.265183
0.624584 0.46022 0 0.229766
0.219992 0.745098 -3.46945e-18 0.182354
0.67013 0.394396 0 0.23957
0.756814 0.178818 0 0.264755
0.715676 0.306027 0 0.251511
0.0757758 0.775831 3.46945e-18 0.178796
0.756814 0.188991 0 0.264297
0.756814 0.199534 -3.46945e-18 0.263809
0.715676 0.320819 0 0.250678
0.574156 0.534985 0 0.219082
0.288433 0.730005 0 0.186178
0.756814 0.21046 0 0.263287
0.467897 0.632561 0 0.203048
0.67013 0.412397 0 0.238457
0.624584 0.48061 0 0.228437
0.756814 0.221782 3.46945e-18 0.262731
0.412065 0.67277 -2.31296e-18 0.196591
0.715676 0.336148 0 0.249789
0 0.791472 0 0.177723
0.756814 0.233515 0 0.262138
0.523729 0.594219 0 0.210421
0.624584 0.487654 0 0.227965
0.756814 0.245675 0 0.261506
0.350249 0.715441 3.46945e-18 0.189857
0.67013 0.431051 -3.46945e-18 0.237269
0.715676 0.352034 0 0.248841
0.797951 9.0819e-19 0 0.277928
0.797951 0.00368111 0 0.277935
0.797951 0.00749587 0 0.277954
0.797951 0.0114491 0 0.277979
0.797951 0.0141803 0 0.277989
0.797951 0.0155459 0 0.277994
0.797951 0.0169611 0 0.277989
0.797951 0.0197915 0 0.277978
0.797951 0.0219913 0 0.277955
0.797951 0.0241911 0 0.277932
0.797951 0.0264709 0 0.277899
0.797951 0.0287506 0 0.277867
0.797951 0.0334755 0 0.277793
0.797951 0.038372 0 0.277714
0.797951 0.0434463 0 0.277631
0.797951 0.0487048 0 0.277544
0.756814 0.258276 0 0.260833
0.797951 0.0541543 0 0.277455
0.797951 0.0598016 0 0.27736
0.797951 0.0656539 0 0.277249
0.574156 0.55809 0 0.217504
0.624584 0.501741 -2.05433e-33 0.227019
0.797951 0.0717187 0 0.277101
0.797951 0.0780037 0 0.276907
0.797951 0.0845169 0 0.276681
0.797951 0.0912666 0 0.276436
0.797951 0.0982613 0 0.276175
0.756814 0.271334 -3.46945e-18 0.260116
0.797951 0.10551 0 0.275894
0.715676 0.368496 0 0.247831
0.151552 0.791472 0 0.178508
0.797951 0.113022 0 0.275594
0.219992 0.775831 3.46945e-18 0.180314
0.797951 0.118212 0 0.27538
0.770526 0.239487 0 0.264556
0.797951 0.120806 9.25186e-19 0.275273
0.67013 0.450382 3.46945e-18 0.236002
0.797951 0.128874 -2.31296e-18 0.274931
0.467897 0.659208 0 0.201197
0.756814 0.284866 0 0.259353
0.743101 0.320819 0 0.255246
0.797951 0.137234 0 0.274566
0.797951 0.141566 0 0.274371
0.797951 0.145897 0 0.274177
0.523729 0.619475 0 0.20865
0.0757758 0.80768 0 0.176644
0.797951 0.150387 0 0.273969
0.797951 0.154876 9.25186e-19 0.273762
0.715676 0.385557 0 0.246755
0.412065 0.700877 -2.31296e-18 0.194633
0.288433 0.76019 0 0.184126
0.756814 0.29889 -3.46945e-18 0.258541
0.797951 0.16418 0 0.273321
0.624584 0.523639 -1.54074e-33 0.225508
0.797951 0.167394 0 0.273165
0.797951 0.173822 0 0.272852
0.574156 0.582034 0 0.215823
0.67013 0.470415 0 0.23465
0.797951 0.183814 0 0.272354
0.756814 0.313423 0 0.257677
0.797951 0.194169 0 0.271824
0.715676 0.403236 -6.16298e-33 0.245608
0.151552 0.80768 0 0.177403
0.797951 0.197746 0 0.271637
0.350249 0.745098 -3.46945e-18 0.187806
0.797951 0.2049 0 0.271262
0 0.823889 0 0.175517
0.756814 0.328484 0 0.256758
0.797951 0.21046 0 0.270963
0.797951 0.21602 0 0.270665
0.797951 0.223703 0 0.270242
0.797951 0.227544 0 0.270031
0.624584 0.546332 0 0.223897
0.715676 0.421557 0 0.244387
0.67013 0.491176 3.46945e-18 0.233209
0.797951 0.231525 0 0.269807
0.467897 0.686823 0 0.199229
0.523729 0.645647 0 0.206766
0.756814 0.344091 -3.46945e-18 0.255781
0.822721 0.120806 0 0.280649
0.797951 0.239487 0 0.269359
0.822721 0.137234 0 0.279877
0.835107 0.00184056 -3.46945e-18 0.286261
0.835107 0.00558849 0 0.286276
0.835107 0.0094725 3.46945e-18 0.286301
0.835107 0.0134975 0 0.286328
0.835107 0.0176687 0 0.286327
0.835107 0.0219913 3.46945e-18 0.286284
0.574156 0.606847 3.46945e-18 0.214033
0.835107 0.0241911 0 0.286556
0.835107 0.0264709 3.46945e-18 0.28621
0.822721 0.145897 0 0.279455
0.835107 0.031113 0 0.286118
0.835107 0.0359238 0 0.286018
0.835107 0.0409092 -3.46945e-18 0.285912
0.835107 0.0460756 0 0.2858
0.835107 0.0514296 -3.46945e-18 0.285683
0.797951 0.251863 0 0.268646
0.835107 0.0541543 0 0.285922
0.835107 0.0569779 -3.46945e-18 0.285562
0.219992 0.80768 -3.46945e-18 0.178159
0.822721 0.154876 0 0.279006
0.835107 0.0627277 -3.46945e-18 0.285431
0.151552 0.823889 0 0.176298
0.797951 0.255069 0 0.268457
0.835107 0.0686863 3.46945e-18 0.285269
0.756814 0.360265 3.46945e-18 0.254742
0.412065 0.730005 0 0.192558
0.835107 0.0748612 0 0.285054
0.822721 0.16418 0 0.27853
0.835107 0.0812603 3.46945e-18 0.2848
0.835107 0.0878917 0 0.284526
0.715676 0.440544 0 0.243086
0.835107 0.0947639 0 0.284234
0.797951 0.264688 6.16298e-33 0.26789
0.835107 0.101886 -3.46945e-18 0.283922
0.835107 0.109266 0 0.283589
0.288433 0.791472 0 0.181958
0.835107 0.116914 0 0.283234
0.67013 0.51269 0 0.231674
0.797951 0.274657 0 0.267288
0.0757758 0.840686 3.46945e-18 0.174383
0.835107 0.12484 0 0.282858
0.797951 0.27798 0 0.267088
0.624584 0.569849 0 0.222181
0.756814 0.377026 0 0.253637
0.835107 0.133054 -3.46945e-18 0.282457
0.835107 0.141566 0 0.282033
0.835107 0.150387 3.46945e-18 0.281582
0.797951 0.291753 0 0.266238
0.835107 0.159528 0 0.281105
0.715676 0.46022 0 0.241701
0.816529 0.239487 0 0.273068
0.350249 0.775831 0 0.185634
0.835107 0.169001 0 0.280599
0.523729 0.67277 0 0.204764
0.756814 0.394396 -3.46945e-18 0.252463
0.822721 0.227544 0 0.275016
0.835107 0.178818 0 0.280064
0.574156 0.632561 0 0.212128
0.797951 0.306027 -1.54074e-33 0.265337
0.467897 0.715441 3.46945e-18 0.197141
0.835107 0.188991 0 0.279497
0.797951 0.310958 0 0.265019
0 0.857483 0 0.1732
0.67013 0.534985 3.46945e-18 0.230039
0.835107 0.199534 0 0.278898
0.835107 0.2049 0 0.278855
0.797951 0.320819 0 0.264382
0.835107 0.21046 3.46945e-18 0.278264
0.756814 0.412397 -3.46945e-18 0.251214
0.715676 0.48061 0 0.240227
0.624584 0.594219 0 0.220354
0.797951 0.328484 0 0.263876
0.835107 0.221782 0 0.277594
0.412065 0.76019 0 0.190358
0.797951 0.336148 0 0.263369
0.835107 0.233515 3.46945e-18 0.276885
0.219992 0.840686 0 0.175887
0.835107 0.245675 3.46945e-18 0.276136
0.151552 0.857483 0 0.173973
0.756814 0.431051 0 0.249887