# UMean  POINT_DATA 63140
# x  y  z  UMean_x  UMean_y  UMean_z
0 0.1 0 0.978148 0 0.207912
0 0.1 -0.0179898 0.978148 0 0.207912
0 0.1 0.0179898 0.978148 0 0.207912
0.0363518 0.1 -0.0179898 0.981042 0.00739043 0.207791
0.0363518 0.1 0.0179898 0.98108 0.00740188 0.208192
0 0.1 -0.0570102 0.978148 0 0.207912
0 0.1 0.0570102 0.978148 0 0.207912
0.0363518 0.1 0.0570102 0.98108 0.00740188 0.208192
0.0363518 0.1 -0.0570102 0.981042 0.00739043 0.207791
0 0.1 -0.075 0.978148 0 0.207912
0 0.1 0.075 0.978148 0 0.207912
0.0757758 0.1 -0.0375 0.984226 0.0155328 0.207657
0.0757758 0.1 0.0375 0.984305 0.015556 0.208492
0 0.1 -0.0929898 0.978148 0 0.207912
0 0.1 0.0929898 0.978148 0 0.207912
0.0363518 0.1 -0.0929898 0.980977 0.007357 0.207383
0.0363518 0.1 0.0929898 0.981069 0.0073847 0.208593
0 0.1 -0.13201 0.978148 0 0.207912
0 0.1 0.13201 0.978148 0 0.207912
0.0757758 0.1 -0.1125 0.98409 0.0154651 0.206806
0.0757758 0.1 0.1125 0.984283 0.0155208 0.209329
0.0363518 0.1 -0.13201 0.980977 0.007357 0.207383
0.0363518 0.1 0.13201 0.981069 0.0073847 0.208593
0 0.1 -0.15 0.978148 0 0.207912
0 0.1 0.15 0.978148 0 0.207912
0.150379 0.1 -4.33681e-19 0.986442 0.0149633 0.207996
0 0.1 -0.16799 0.978148 0 0.207912
0 0.1 0.16799 0.978148 0 0.207912
0.150379 0.1 -0.075 0.986524 0.0149211 0.206549
0.150379 0.1 0.075 0.986464 0.0149711 0.209432
0.0363518 0.1 -0.16799 0.980924 0.00732438 0.20699
0.0363518 0.1 0.16799 0.981026 0.00734958 0.208978
0.0757758 0.1 -0.1875 0.983983 0.0153992 0.205986
0.0757758 0.1 0.1875 0.984194 0.0154496 0.210132
0 0.1 -0.20701 0.978148 0 0.207912
0 0.1 0.20701 0.978148 0 0.207912
0.0363518 0.1 -0.20701 0.980924 0.00732438 0.20699
0.0363518 0.1 0.20701 0.981026 0.00734958 0.208978
0.150379 0.1 -0.15 0.986704 0.0148696 0.205099
0.150379 0.1 0.15 0.986593 0.0149392 0.210855
0.219992 0.1 -0.0375 0.988584 0.0143946 0.206911
0.219992 0.1 0.0375 0.988459 0.014431 0.208933
0 0.1 -0.225 0.978148 0 0.207912
0 0.1 0.225 0.978148 0 0.207912
0 0.1 -0.24299 0.978148 0 0.207912
0 0.1 0.24299 0.978148 0 0.207912
0.0363518 0.1 0.24299 0.980973 0.00731336 0.209346
0.0363518 0.1 -0.24299 0.980887 0.00729519 0.206618
0.219992 0.1 -0.1125 0.988987 0.014353 0.204885
0.219992 0.1 0.1125 0.988616 0.0144363 0.210925
0.150379 0.1 0.225 0.986812 0.0148835 0.21226
0.150379 0.1 -0.225 0.986914 0.0148205 0.20369
0.0757758 0.1 0.2625 0.984087 0.0153763 0.2109
0.0757758 0.1 -0.2625 0.983908 0.0153394 0.205211
0 0.1 -0.28201 0.978148 0 0.207912
0 0.1 0.28201 0.978148 0 0.207912
0.0363518 0.1 -0.28201 0.980887 0.00729519 0.206618
0.0363518 0.1 0.28201 0.980973 0.00731336 0.209346
0.287374 0.1 0 0.985524 0.0139409 0.207688
0.219992 0.1 -0.1875 0.989521 0.0143206 0.202836
0.219992 0.1 0.1875 0.989069 0.0144082 0.212931
0.287374 0.1 -0.075 0.985765 0.0139163 0.205061
0.287374 0.1 0.075 0.985543 0.0139578 0.210295
0 0.1 -0.3 0.978148 0 0.207912
0 0.1 0.3 0.978148 0 0.207912
0 0.1 -0.31799 0.978148 0 0.207912
0 0.1 0.31799 0.978148 0 0.207912
0.0363518 0.1 -0.31799 0.980865 0.00726428 0.206277
0.0363518 0.1 0.31799 0.980936 0.00728086 0.209686
0.287374 0.1 -0.15 0.986224 0.0138856 0.202425
0.287374 0.1 0.15 0.985829 0.0139559 0.212885
0.150379 0.1 -0.3 0.98711 0.0147678 0.202368
0.150379 0.1 0.3 0.987055 0.0148187 0.213611
0.219992 0.1 -0.2625 0.989979 0.0142813 0.200899
0.219992 0.1 0.2625 0.989661 0.0143568 0.214918
0.0757758 0.1 -0.3375 0.983862 0.0152761 0.204501
0.0757758 0.1 0.3375 0.98401 0.0153099 0.211609
0.350249 0.1 -0.0375 0.98271 0.0134853 0.205866
0.350249 0.1 0.0375 0.982612 0.0134959 0.209064
0 0.1 0.35701 0.978148 0 0.207912
0 0.1 -0.35701 0.978148 0 0.207912
0.0363518 0.1 -0.35701 0.980865 0.00726428 0.206277
0.0363518 0.1 0.35701 0.980936 0.00728086 0.209686
0.287374 0.1 -0.225 0.986781 0.0138382 0.199847
0.287374 0.1 0.225 0.986352 0.013924 0.215457
0.350249 0.1 0.1125 0.982752 0.0135113 0.212226
0.350249 0.1 -0.1125 0.983052 0.0134743 0.202653
0 0.1 -0.375 0.978148 0 0.207912
0 0.1 0.375 0.978148 0 0.207912
0 0.1 -0.39299 0.978148 0 0.207912
0 0.1 0.39299 0.978148 0 0.207912
0.0363518 0.1 -0.39299 0.980858 0.00723648 0.205964
0.0363518 0.1 0.39299 0.98091 0.00725021 0.209989
0.350249 0.1 -0.1875 0.983611 0.0134359 0.199449
0.350249 0.1 0.1875 0.983149 0.0135105 0.215373
0.219992 0.1 -0.3375 0.990403 0.0142321 0.199084
0.219992 0.1 0.3375 0.990194 0.0142881 0.216803
0.150379 0.1 -0.375 0.987314 0.014711 0.201143
0.150379 0.1 0.375 0.987291 0.0147501 0.214872
0.411108 0.1 -2.21177e-17 0.977541 0.0137482 0.207059
0.287374 0.1 -0.3 0.98735 0.0137689 0.19741
0.287374 0.1 0.3 0.986995 0.0138585 0.217954
0.411108 0.1 0.075 0.977569 0.0137592 0.210911
0.411108 0.1 -0.075 0.977796 0.0137348 0.203189
0.0757758 0.1 -0.4125 0.983851 0.0152197 0.203847
0.0757758 0.1 0.4125 0.983959 0.0152473 0.212241
0 0.1 -0.43201 0.978148 0 0.207912
0 0.1 0.43201 0.978148 0 0.207912
0.0363518 0.1 -0.43201 0.980858 0.00723648 0.205964
0.0363518 0.1 0.43201 0.98091 0.00725021 0.209989
0.411108 0.1 -0.15 0.978327 0.0137044 0.199347
0.411108 0.1 0.15 0.977885 0.0137626 0.214723
0.350249 0.1 -0.2625 0.984279 0.0133579 0.19638
0.350249 0.1 0.2625 0.983801 0.0134628 0.218474
0 0.1 -0.45 0.978148 0 0.207912
0 0.1 0.45 0.978148 0 0.207912
0.219992 0.1 -0.4125 0.990831 0.0141738 0.197415
0.219992 0.1 0.4125 0.990705 0.014212 0.218571
0 0.1 -0.46799 0.978148 0 0.207912
0 0.1 0.46799 0.978148 0 0.207912
0.411108 0.1 -0.225 0.97908 0.0136382 0.19561
0.411108 0.1 0.225 0.9785 0.0137354 0.218474
0.467897 0.1 0.0375 0.972571 0.0139988 0.208927
0.467897 0.1 -0.0375 0.972698 0.0139887 0.204411
0.0363518 0.1 -0.46799 0.980873 0.00721065 0.205668
0.0363518 0.1 0.46799 0.980899 0.00722367 0.210261
0.287374 0.1 -0.375 0.987933 0.0136784 0.19515
0.287374 0.1 0.375 0.98767 0.013765 0.220308
0.150379 0.1 -0.45 0.987514 0.0146501 0.200029
0.150379 0.1 0.45 0.987521 0.0146839 0.216014
0.467897 0.1 -0.1125 0.97315 0.0139671 0.199914
0.467897 0.1 0.1125 0.972766 0.0140065 0.213404
0.350249 0.1 0.3375 0.984589 0.0133694 0.221441
0.350249 0.1 -0.3375 0.984997 0.0132494 0.193501
0.0757758 0.1 -0.4875 0.983882 0.015167 0.203231
0.0757758 0.1 0.4875 0.983937 0.0151933 0.212808
0.467897 0.1 -0.1875 0.973913 0.0139168 0.195512
0.467897 0.1 0.1875 0.973294 0.0139984 0.217811
0 0.1 -0.50701 0.978148 0 0.207912
0 0.1 0.50701 0.978148 0 0.207912
0.0363518 0.1 -0.50701 0.980873 0.00721065 0.205668
0.0363518 0.1 0.50701 0.980899 0.00722367 0.210261
0.411108 0.1 -0.3 0.979977 0.0135296 0.19207
0.411108 0.1 0.3 0.979375 0.0136604 0.222103
0.522864 0.1 -2.08167e-17 0.966113 0.0146283 0.20612
0 0.1 -0.525 0.978148 0 0.207912
0 0.1 0.525 0.978148 0 0.207912
0.522864 0.1 -0.075 0.966464 0.0146022 0.200913
0.522864 0.1 0.075 0.966152 0.0146366 0.211327
0.287374 0.1 -0.45 0.988502 0.0135674 0.193105
0.287374 0.1 0.45 0.988347 0.0136504 0.222461
0.219992 0.1 -0.4875 0.991168 0.0140984 0.19594
0.219992 0.1 0.4875 0.991165 0.0141406 0.220122
0.467897 0.1 0.2625 0.974173 0.0139466 0.22211
0.467897 0.1 -0.2625 0.974922 0.0138197 0.191287
0.350249 0.1 -0.4125 0.985745 0.0131065 0.190868
0.350249 0.1 0.4125 0.985444 0.0132355 0.224191
0 0.1 -0.54299 0.978148 0 0.207912
0 0.1 0.54299 0.978148 0 0.207912
0.522864 0.1 0.15 0.966582 0.0146262 0.21647
0.522864 0.1 -0.15 0.967196 0.0145465 0.19579
0.0363518 0.1 -0.54299 0.980894 0.00718384 0.205399
0.0363518 0.1 0.54299 0.980908 0.0071967 0.210513
0.150379 0.1 -0.525 0.987706 0.0145827 0.199029
0.150379 0.1 0.525 0.98773 0.0146173 0.217011
0.411108 0.1 -0.375 0.980969 0.0133802 0.188797
0.411108 0.1 0.375 0.980424 0.0135364 0.225521
0.0757758 0.1 -0.5625 0.983926 0.015112 0.202671
0.0757758 0.1 0.5625 0.983955 0.0151383 0.213332
0.522864 0.1 -0.225 0.968273 0.0144456 0.190848
0.522864 0.1 0.225 0.967417 0.0145801 0.221495
0.574156 0.1 -0.0375 0.959936 0.0152254 0.202636
0.574156 0.1 0.0375 0.959753 0.0152454 0.208546
0.467897 0.1 -0.3375 0.976102 0.0136701 0.187348
0.467897 0.1 0.3375 0.975342 0.0138399 0.226208
0 0.1 -0.58201 0.978148 0 0.207912
0 0.1 0.58201 0.978148 0 0.207912
0.0363518 0.1 -0.58201 0.980894 0.00718384 0.205399
0.0363518 0.1 0.58201 0.980908 0.0071967 0.210513
0.574156 0.1 -0.1125 0.960573 0.0151736 0.196785
0.574156 0.1 0.1125 0.960023 0.0152407 0.214419
0.287374 0.1 -0.525 0.989052 0.0134414 0.191289
0.287374 0.1 0.525 0.988981 0.0135208 0.22436
0 0.1 -0.6 0.978148 0 0.207912
0 0.1 0.6 0.978148 0 0.207912
0.350249 0.1 -0.4875 0.986489 0.0129433 0.188506
0.350249 0.1 0.4875 0.98631 0.0130618 0.226689
0.522864 0.1 0.3 0.968639 0.0144805 0.226329
0.522864 0.1 -0.3 0.969626 0.0142888 0.186186
0.219992 0.1 -0.5625 0.991506 0.0140132 0.194631
0.219992 0.1 0.5625 0.991526 0.0140561 0.221427
0.574156 0.1 -0.1875 0.961641 0.0150761 0.191097
0.574156 0.1 0.1875 0.960748 0.015205 0.220179
0.411108 0.1 -0.45 0.982017 0.0131971 0.185833
0.411108 0.1 0.45 0.98157 0.0133644 0.228666
0 0.1 -0.61799 0.978148 0 0.207912
0 0.1 0.61799 0.978148 0 0.207912
0.150379 0.1 -0.6 0.987908 0.0145121 0.198143
0.150379 0.1 0.6 0.98793 0.0145428 0.217873
0.0363518 0.1 -0.61799 0.980915 0.00715936 0.205162
0.0363518 0.1 0.61799 0.980926 0.00716757 0.210738
0.467897 0.1 0.4125 0.976707 0.0136787 0.230022
0.467897 0.1 -0.4125 0.9774 0.0134753 0.183746
0.623803 0.1 1.04083e-17 0.952266 0.0161834 0.204926
0.623803 0.1 -0.075 0.952761 0.0161318 0.198309
0.623803 0.1 0.075 0.952311 0.0161927 0.211566
0.574156 0.1 -0.2625 0.963092 0.0149196 0.18569
0.574156 0.1 0.2625 0.961947 0.0151178 0.225761
0.623803 0.1 -0.15 0.953784 0.0160284 0.191835
0.623803 0.1 0.15 0.952896 0.0161606 0.218124
0.0757758 0.1 0.6375 0.983992 0.0150787 0.213801
0.0757758 0.1 -0.6375 0.983969 0.015062 0.202177
0.522864 0.1 -0.375 0.971185 0.014077 0.181889
0.522864 0.1 0.375 0.970174 0.0143207 0.230878
0 0.1 0.65701 0.978148 0 0.207912
0 0.1 -0.65701 0.978148 0 0.207912
0.0363518 0.1 0.65701 0.980926 0.00716757 0.210738
0.0363518 0.1 -0.65701 0.980915 0.00715936 0.205162
0.350249 0.1 -0.5625 0.987251 0.012767 0.186427
0.350249 0.1 0.5625 0.987137 0.0128777 0.228892
0.623803 0.1 -0.225 0.955293 0.0158619 0.18563
0.623803 0.1 0.225 0.954026 0.0160771 0.224508
0.287374 0.1 -0.6 0.989622 0.0133058 0.189699
0.287374 0.1 0.6 0.989578 0.0133808 0.226
0.574156 0.1 -0.3375 0.964846 0.0146982 0.180659
0.574156 0.1 0.3375 0.963572 0.0149665 0.231069
0.411108 0.1 -0.525 0.983106 0.0129911 0.183206
0.411108 0.1 0.525 0.982749 0.0131569 0.23149
0.67013 0.1 -0.0375 0.945093 0.0170745 0.200595
0.67013 0.1 0.0375 0.944827 0.0171119 0.207973
0.219992 0.1 0.6375 0.991891 0.0139586 0.222543
0.219992 0.1 -0.6375 0.991877 0.0139225 0.193482
0 0.1 -0.675 0.978148 0 0.207912
0 0.1 0.675 0.978148 0 0.207912
0.467897 0.1 -0.4875 0.978778 0.0132462 0.180526
0.467897 0.1 0.4875 0.978182 0.0134608 0.233497
0.67013 0.1 -0.1125 0.945984 0.0169785 0.19332
0.67013 0.1 0.1125 0.945186 0.0170961 0.215321
0.522864 0.1 -0.45 0.972896 0.0138197 0.178014
0.522864 0.1 0.45 0.971928 0.0140993 0.235064
0.150379 0.1 0.675 0.988141 0.0144619 0.218614
0.150379 0.1 -0.675 0.988122 0.0144416 0.197376
0.623803 0.1 0.3 0.955684 0.0159279 0.230627
0.623803 0.1 -0.3 0.95722 0.0156258 0.179804
0 0.1 -0.69299 0.978148 0 0.207912
0 0.1 0.69299 0.978148 0 0.207912
0.0363518 0.1 0.69299 0.980944 0.00714019 0.210931
0.0363518 0.1 -0.69299 0.980931 0.00713832 0.20496
0.67013 0.1 0.1875 0.946165 0.0170247 0.222518
0.67013 0.1 -0.1875 0.947468 0.0168126 0.186287
0.574156 0.1 -0.4125 0.966827 0.0144198 0.176083
0.574156 0.1 0.4125 0.965531 0.0147487 0.235999
0.714971 0.1 -1.82146e-17 0.936575 0.018329 0.203521
0.0757758 0.1 0.7125 0.984031 0.0150228 0.214204
0.0757758 0.1 -0.7125 0.984003 0.0150191 0.201756
0.714971 0.1 -0.075 0.937259 0.0182406 0.195418
0.714971 0.1 0.075 0.936619 0.018344 0.211673
0.67013 0.1 -0.2625 0.949483 0.0165695 0.179641
0.67013 0.1 0.2625 0.94777 0.0168867 0.229463
0.411108 0.1 -0.6 0.984238 0.0127693 0.180929
0.411108 0.1 0.6 0.983929 0.0129326 0.233959
0.350249 0.1 -0.6375 0.988044 0.0125808 0.184634
0.350249 0.1 0.6375 0.987952 0.012688 0.230792
0.623803 0.1 -0.375 0.959481 0.0153221 0.174458
0.623803 0.1 0.375 0.9578 0.0157053 0.236369
0.714971 0.1 0.15 0.937388 0.0182877 0.219728
0.714971 0.1 -0.15 0.938651 0.0180717 0.187521
0.467897 0.1 -0.5625 0.980223 0.0129939 0.177713
0.467897 0.1 0.5625 0.9797 0.0132089 0.236579
0 0.1 -0.73201 0.978148 0 0.207912
0 0.1 0.73201 0.978148 0 0.207912
0.0363518 0.1 -0.73201 0.980931 0.00713832 0.20496
0.0363518 0.1 0.73201 0.980944 0.00714019 0.210931
0.287374 0.1 0.675 0.990182 0.0132317 0.2274
0.287374 0.1 -0.675 0.99022 0.0131629 0.188337
0.522864 0.1 -0.525 0.97472 0.0135288 0.174604
0.522864 0.1 0.525 0.973815 0.0138252 0.238826
0.219992 0.1 0.7125 0.992282 0.0138503 0.22349
0.219992 0.1 -0.7125 0.99227 0.0138264 0.192504
0.714971 0.1 0.225 0.938874 0.0181555 0.227555
0.714971 0.1 -0.225 0.940697 0.0178148 0.179984
0 0.1 0.75 0.978148 0 0.207912
0 0.1 -0.75 0.978148 0 0.207912
0.67013 0.1 -0.3375 0.951944 0.0162495 0.173468
0.67013 0.1 0.3375 0.949959 0.0166689 0.236056
0.574156 0.1 0.4875 0.967723 0.0144624 0.240483
0.574156 0.1 -0.4875 0.968983 0.0140966 0.172019
0.756814 0.1 -0.0375 0.928655 0.0194871 0.198318
0.756814 0.1 0.0375 0.928281 0.0195502 0.207245
0.150379 0.1 0.746002 0.988273 0.0143942 0.219119
0.150379 0.1 -0.75 0.988339 0.0143722 0.196733
0.756814 0.1 -0.1125 0.929853 0.0193316 0.18954
0.756814 0.1 0.1125 0.928737 0.0195253 0.216151
0 0.1 0.76799 0.978148 0 0.207912
0 0.1 -0.76799 0.978148 0 0.207912
0.0363518 0.1 0.76799 0.98096 0.00711663 0.21109
0.0363518 0.1 -0.76799 0.980943 0.00712016 0.204794
0.623803 0.1 -0.45 0.962003 0.0149614 0.169672
0.623803 0.1 0.45 0.96027 0.0154093 0.24164
0.714971 0.1 0.3 0.941055 0.0179383 0.235034
0.714971 0.1 -0.3 0.943318 0.0174691 0.172945
0.756814 0.1 -0.1875 0.931835 0.019076 0.181088
0.756814 0.1 0.1875 0.93001 0.0194127 0.22487
0.67013 0.1 -0.4125 0.954765 0.0158582 0.167902
0.67013 0.1 0.4125 0.952627 0.0163683 0.242149
0.411108 0.1 -0.675 0.985404 0.0125363 0.179007
0.411108 0.1 0.675 0.985116 0.012698 0.236065
0.467897 0.1 -0.6375 0.981721 0.0127248 0.175318
0.467897 0.1 0.6375 0.981232 0.0129408 0.239237
0.0757758 0.1 -0.7875 0.984029 0.0149822 0.20141
0.0757758 0.1 0.7875 0.984064 0.0149747 0.214534
0.350249 0.1 0.7125 0.988777 0.0124911 0.232395
0.350249 0.1 -0.7125 0.98886 0.0123866 0.183132
0.522864 0.1 -0.6 0.976629 0.0132149 0.171679
0.522864 0.1 0.6 0.975768 0.0135179 0.242115
0.797314 0.1 -2.86229e-17 0.919495 0.0211026 0.201943
0.287374 0.1 0.746002 0.9908 0.0130947 0.228431
0.797314 0.1 -0.075 0.920407 0.0209638 0.19228
0.797314 0.1 0.075 0.919528 0.0211295 0.211686
0.756814 0.1 0.2625 0.932085 0.019208 0.233264
0.756814 0.1 -0.2625 0.934519 0.0187165 0.173117
0.287374 0.1 -0.75 0.990832 0.0130154 0.187209
0.574156 0.1 -0.5625 0.97127 0.0137417 0.168504
0.574156 0.1 0.5625 0.970053 0.0141254 0.244453
0 0.1 0.80701 0.978148 0 0.207912
0 0.1 -0.80701 0.978148 0 0.207912
0.714971 0.1 -0.375 0.946419 0.0170415 0.166524
0.714971 0.1 0.375 0.943853 0.0176292 0.242036
0.0363518 0.1 -0.80701 0.980943 0.00712016 0.204794
0.0363518 0.1 0.80701 0.98096 0.00711663 0.21109
0.797314 0.1 -0.15 0.922237 0.0207077 0.182888
0.797314 0.1 0.15 0.9205 0.0210467 0.221317
0.623803 0.1 -0.525 0.964721 0.0145582 0.165495
0.623803 0.1 0.525 0.962987 0.0150478 0.246365
0.219992 0.1 0.7875 0.992688 0.0137367 0.224274
0.219992 0.1 -0.7875 0.992666 0.0137277 0.191701
0.149792 0.1 0.80701 0.988523 0.0143206 0.219621
0 0.1 0.825 0.978148 0 0.207912
0 0.1 -0.825 0.978148 0 0.207912
0.797314 0.1 -0.225 0.924916 0.0203313 0.173954
0.797314 0.1 0.225 0.922393 0.0208543 0.230663
0.756814 0.1 -0.3375 0.937816 0.018261 0.165792
0.756814 0.1 0.3375 0.934922 0.0189025 0.241202
0.67013 0.1 -0.4875 0.957863 0.015413 0.162996
0.67013 0.1 0.4875 0.95566 0.0159921 0.247684
0.835107 0.1 -0.0375 0.911045 0.0225824 0.195856
0.835107 0.1 0.0375 0.910537 0.0226827 0.206404
0.150379 0.1 -0.825 0.98855 0.0143046 0.196216
0.835107 0.1 -0.1125 0.912607 0.0223477 0.185504
0.835107 0.1 0.1125 0.911094 0.0226509 0.216943
0 0.1 0.84299 0.978148 0 0.207912
0 0.1 -0.84299 0.978148 0 0.207912
0.0363518 0.1 0.84299 0.980972 0.00709726 0.211213
0.0363518 0.1 -0.84299 0.980952 0.00710436 0.204663
0.714971 0.1 -0.45 0.9499 0.0165454 0.160816
0.714971 0.1 0.45 0.94715 0.0172311 0.248438
0.411108 0.1 0.746002 0.986304 0.0124643 0.237648
0.797314 0.1 -0.3 0.92835 0.0198407 0.165657
0.797314 0.1 0.3 0.925169 0.0205487 0.239571
0.467897 0.1 -0.7125 0.983248 0.012446 0.173345
0.467897 0.1 0.7125 0.982776 0.0126605 0.241471
0.522864 0.1 0.675 0.977752 0.0131916 0.24491
0.522864 0.1 -0.675 0.97859 0.0128858 0.16925
0.411108 0.1 -0.75 0.986585 0.012297 0.177443
0.835107 0.1 -0.1875 0.915169 0.0219725 0.175566
0.835107 0.1 0.1875 0.912693 0.0224902 0.227255
0.286844 0.1 0.80701 0.991278 0.0129538 0.229298
0.574156 0.1 0.6375 0.972452 0.0137572 0.247867
0.574156 0.1 -0.6375 0.973643 0.0133665 0.165554
0.350249 0.1 -0.7875 0.989682 0.01219 0.181921
0.350249 0.1 0.7875 0.989608 0.0122855 0.233703
0.756814 0.1 0.4125 0.938398 0.0184934 0.248541
0.756814 0.1 -0.4125 0.941611 0.0177222 0.159209
0.623803 0.1 -0.6 0.967576 0.0141257 0.161958
0.623803 0.1 0.6 0.965852 0.0146371 0.250482
0.0757758 0.1 0.8625 0.98409 0.0149353 0.214791
0.0757758 0.1 -0.8625 0.984048 0.01495 0.201138
0.871687 0.1 -1.73472e-17 0.901483 0.0244788 0.200228
0.287374 0.1 -0.825 0.99144 0.012866 0.186314
0.871687 0.1 -0.075 0.902649 0.0242717 0.188939
0.871687 0.1 0.075 0.901497 0.0245256 0.211626
0.67013 0.1 -0.5625 0.961161 0.0149281 0.158801
0.67013 0.1 0.5625 0.95894 0.0155494 0.252562
0.835107 0.1 0.2625 0.915303 0.0222004 0.237168
0.835107 0.1 -0.2625 0.918639 0.0214616 0.166236
0.797314 0.1 -0.375 0.932422 0.0192501 0.158134
0.797314 0.1 0.375 0.928743 0.0201266 0.247892
0 0.1 0.88201 0.978148 0 0.207912
0 0.1 -0.88201 0.978148 0 0.207912
0.0363518 0.1 0.88201 0.980972 0.00709726 0.211213
0.0363518 0.1 -0.88201 0.980952 0.00710436 0.204663
0.871687 0.1 0.15 0.902685 0.0244145 0.222898
0.871687 0.1 -0.15 0.904962 0.0239027 0.177992
0.714971 0.1 -0.525 0.953664 0.0159983 0.155884
0.714971 0.1 0.525 0.950818 0.0167541 0.254153
0.219992 0.1 0.8625 0.993093 0.0136252 0.224896
0.219992 0.1 -0.8625 0.993054 0.0136278 0.191074
0 0.1 0.9 0.978148 0 0.207912
0 0.1 -0.9 0.978148 0 0.207912
0.756814 0.1 -0.4875 0.945785 0.0171185 0.153462
0.756814 0.1 0.4875 0.94238 0.0179908 0.255146
0.871687 0.1 -0.225 0.908342 0.0233751 0.167613
0.871687 0.1 0.225 0.905015 0.0241492 0.233829
0.835107 0.1 -0.3375 0.922899 0.0208303 0.157712
0.835107 0.1 0.3375 0.918869 0.0217813 0.246509
0.410629 0.1 0.80701 0.987224 0.0122639 0.238897
0.905821 0.1 -0.0375 0.89275 0.0261914 0.193236
0.905821 0.1 0.0375 0.892101 0.0263437 0.205463
0.522864 0.1 0.746002 0.979721 0.0128627 0.247024
0.150379 0.1 0.9 0.988798 0.0142266 0.220122
0.905821 0.1 0.1125 0.892759 0.0263092 0.217694
0.905821 0.1 -0.1125 0.89469 0.0258525 0.181255
0.522864 0.1 -0.75 0.980564 0.0125485 0.167314
0.574156 0.1 -0.7125 0.976053 0.0129781 0.163174
0.574156 0.1 0.7125 0.974882 0.0133726 0.250715
0.797314 0.1 -0.45 0.937002 0.0185767 0.151491
0.797314 0.1 0.45 0.932977 0.0195925 0.255471
0.467897 0.1 0.7875 0.984322 0.0123703 0.243279
0.467897 0.1 -0.7875 0.984777 0.0121624 0.171791
0.150379 0.1 -0.903998 0.988835 0.0142307 0.195743
0 0.1 0.91799 0.978148 0 0.207912
0 0.1 -0.91799 0.978148 0 0.207912
0.0363518 0.1 0.91799 0.98098 0.00708076 0.211302
0.0363518 0.1 -0.91799 0.980958 0.00709083 0.204568
0.623803 0.1 -0.675 0.970503 0.0136751 0.159072
0.623803 0.1 0.675 0.968792 0.014196 0.253961
0.411108 0.1 -0.825 0.987757 0.0120552 0.176232
0.871687 0.1 -0.3 0.912674 0.0227005 0.158014
0.871687 0.1 0.3 0.908433 0.0237329 0.244223
0.67013 0.1 0.6375 0.962355 0.0150592 0.256737
0.67013 0.1 -0.6375 0.964583 0.0144183 0.155336
0.905821 0.1 -0.1875 0.897863 0.025329 0.169778
0.905821 0.1 0.1875 0.894692 0.0260927 0.229657
0.350249 0.1 0.8625 0.990433 0.0120748 0.234725
0.350249 0.1 -0.8625 0.990491 0.0119922 0.180997
0.835107 0.1 -0.4125 0.927802 0.0200994 0.150085
0.835107 0.1 0.4125 0.92326 0.0212306 0.255133
0.714971 0.1 -0.6 0.957618 0.015417 0.151765
0.714971 0.1 0.6 0.954725 0.0162131 0.25911
0.93886 0.1 -1.25767e-17 0.882855 0.0287198 0.198408
0.0757758 0.1 0.9375 0.984107 0.0149018 0.214976
0.0757758 0.1 -0.9375 0.984061 0.0149225 0.200939
0.93886 0.1 -0.075 0.884303 0.0284212 0.185404
0.93886 0.1 0.075 0.882843 0.0287962 0.211554
0.756814 0.1 -0.5625 0.950234 0.0164697 0.148605
0.756814 0.1 0.5625 0.946724 0.0174092 0.260954
0.905821 0.1 -0.2625 0.902162 0.024633 0.15905
0.905821 0.1 0.2625 0.897855 0.0257009 0.241146
0.287374 0.1 0.9 0.992031 0.0127519 0.23022
0.287374 0.1 -0.903998 0.991951 0.0127126 0.185588
0.871687 0.1 -0.375 0.917808 0.0219003 0.149355
0.871687 0.1 0.375 0.912842 0.0231672 0.253908
0.93886 0.1 -0.15 0.887148 0.0279034 0.172814
0.93886 0.1 0.15 0.884257 0.0286527 0.224558
0.797314 0.1 -0.525 0.94196 0.017842 0.145814
0.797314 0.1 0.525 0.937712 0.0189616 0.262196
0 0.1 0.95701 0.978148 0 0.207912
0 0.1 -0.95701 0.978148 0 0.207912
0.0363518 0.1 0.95701 0.98098 0.00708076 0.211302
0.0363518 0.1 -0.95701 0.980958 0.00709083 0.204568
0.522432 0.1 0.80701 0.981266 0.0125895 0.248632
0.219992 0.1 0.9375 0.993483 0.0135165 0.225351
0.219992 0.1 -0.9375 0.993421 0.0135274 0.190618
0.93886 0.1 -0.225 0.891299 0.0271774 0.160914
0.93886 0.1 0.225 0.887055 0.0282966 0.237156
0.905821 0.1 -0.3375 0.907435 0.0237789 0.149269
0.905821 0.1 0.3375 0.902171 0.0251397 0.251938
0.835107 0.1 0.4875 0.928315 0.0205616 0.262843
0.835107 0.1 -0.4875 0.933212 0.0192855 0.143499
0.96969 0.1 -0.0375 0.873923 0.0309934 0.190473
0.96969 0.1 0.0375 0.873104 0.0312155 0.204506
0.61613 0.1 0.75 0.971753 0.0137375 0.256794
0.574156 0.1 0.7875 0.977308 0.012976 0.252998
0.574156 0.1 -0.7875 0.97845 0.0125839 0.161351
0 0.1 0.975 0.978148 0 0.207912
0 0.1 -0.975 0.978148 0 0.207912
0.623803 0.1 -0.75 0.97344 0.0132156 0.156831
0.96969 0.1 -0.1125 0.8763 0.030515 0.176739
0.96969 0.1 0.1125 0.873865 0.0311803 0.218552
0.522864 0.1 -0.825 0.982515 0.0122074 0.165861
0.67013 0.1 -0.7125 0.968049 0.0138946 0.152604
0.67013 0.1 0.7125 0.965832 0.0145427 0.260189
0.871687 0.1 -0.45 0.923583 0.0210004 0.141771
0.871687 0.1 0.45 0.918087 0.0224595 0.262695
0.467897 0.1 -0.8625 0.986278 0.0118767 0.170646
0.467897 0.1 0.8625 0.985852 0.0120765 0.244673
0.714971 0.1 -0.675 0.961668 0.0148163 0.148472
0.714971 0.1 0.675 0.958755 0.0156295 0.263267
0.93886 0.1 -0.3 0.896612 0.0262629 0.149937
0.93886 0.1 0.3 0.891166 0.0277378 0.249111
0.150379 0.1 0.975 0.988997 0.0141567 0.220387
0.150379 0.1 -0.975 0.988937 0.0141734 0.195552
0.96969 0.1 -0.1875 0.880176 0.0297887 0.163613
0.96969 0.1 0.1875 0.876166 0.0308931 0.232284
0.411108 0.1 0.9 0.988669 0.0119497 0.24024
0.756814 0.1 -0.6375 0.954845 0.0157937 0.144666
0.756814 0.1 0.6375 0.951273 0.0167653 0.26589
0.990306 0.1 0 0.868098 0.0324588 0.19692
0 0.1 0.99299 0.978148 0 0.207912
0 0.1 -0.99299 0.978148 0 0.207912
0.411108 0.1 -0.903998 0.98875 0.0118348 0.175314
0.990306 0.1 -0.075 0.869775 0.0320797 0.182573
0.990306 0.1 0.075 0.868065 0.0325645 0.21143
0.0363518 0.1 0.99299 0.980984 0.00706686 0.211357
0.0363518 0.1 -0.99299 0.980961 0.00707869 0.204506
0.905821 0.1 -0.4125 0.913506 0.0228012 0.1406
0.905821 0.1 0.4125 0.907512 0.0244124 0.261882
0.797314 0.1 -0.6 0.947166 0.0170698 0.141142
0.797314 0.1 0.6 0.94278 0.0182515 0.267997
0.350249 0.1 0.9375 0.991236 0.0118654 0.235468
0.350249 0.1 -0.9375 0.99127 0.0117947 0.180346
0.990306 0.1 -0.15 0.873056 0.0314325 0.168696
0.990306 0.1 0.15 0.869667 0.0323986 0.225788
0.96969 0.1 -0.2625 0.885414 0.0288365 0.151383
0.96969 0.1 0.2625 0.879949 0.030367 0.245449
0.835107 0.1 -0.5625 0.938975 0.0184201 0.138001
0.835107 0.1 0.5625 0.933842 0.019797 0.26959
0.93886 0.1 -0.375 0.902908 0.0251927 0.140078
0.93886 0.1 0.375 0.896479 0.0269854 0.260217
0.0757758 0.1 1.0125 0.984116 0.0148736 0.215091
0.0757758 0.1 -1.0125 0.984068 0.0148978 0.20081
0.990306 0.1 -0.225 0.877839 0.0305336 0.155598
0.990306 0.1 0.225 0.87285 0.0319705 0.239691
0.287374 0.1 -0.975 0.992593 0.0125635 0.185196
0.287374 0.1 0.975 0.992616 0.0125941 0.230715
0.871687 0.1 -0.525 0.929834 0.02003 0.135357
0.871687 0.1 0.525 0.923967 0.021632 0.270454
1.02149 0.1 -0.0369628 0.857561 0.0352949 0.188096
1.02149 0.1 0.0369628 0.856621 0.0355788 0.20338
0.96969 0.1 0.3375 0.885113 0.0296149 0.257788
0.96969 0.1 -0.3375 0.891832 0.0276879 0.140248
1.02149 0.1 -0.110888 0.860241 0.034709 0.173136
1.02149 0.1 0.110888 0.857452 0.0355593 0.218689
0.905821 0.1 -0.4875 0.920188 0.0217313 0.133171
0.905821 0.1 0.4875 0.913675 0.0235346 0.270718
0.623803 0.1 0.819003 0.973806 0.0134006 0.259315
0 0.1 1.03201 0.978148 0 0.207912
0 0.1 -1.03201 0.978148 0 0.207912
0.0363518 0.1 1.03201 0.980984 0.00706686 0.211357
0.0363518 0.1 -1.03201 0.980961 0.00707869 0.204506
0.67013 0.1 -0.7875 0.971486 0.0133683 0.150584
0.67013 0.1 0.7875 0.969307 0.0140115 0.26292
0.623803 0.1 -0.825 0.976328 0.0127541 0.155213
0.990306 0.1 0.3 0.877529 0.0312939 0.252874
0.990306 0.1 -0.3 0.883957 0.0294121 0.143529
0.219992 0.1 1.0125 0.993845 0.0134108 0.225644
0.219992 0.1 -1.0125 0.993764 0.0134221 0.190325
0.574156 0.1 0.8625 0.979696 0.0125733 0.254733
0.574156 0.1 -0.8625 0.980791 0.0121874 0.160067
0.714971 0.1 -0.75 0.965718 0.0142093 0.145991
0.714971 0.1 0.75 0.962823 0.0150229 0.266616
1.02149 0.1 -0.184814 0.864613 0.0338326 0.158832
1.02149 0.1 0.184814 0.860005 0.0352397 0.233673
0.756814 0.1 -0.7125 0.959503 0.0151065 0.141643
0.756814 0.1 0.7125 0.955915 0.0160869 0.269934
0.522864 0.1 0.9 0.983667 0.0121553 0.250356
0.93886 0.1 -0.45 0.909991 0.0240013 0.131498
0.93886 0.1 0.45 0.902813 0.0260526 0.270269
1.04168 0.1 0 0.85026 0.037444 0.195065
1.04168 0.1 -0.0729162 0.852126 0.036975 0.17949
1.04168 0.1 0.0729162 0.850187 0.0375926 0.21082
0.522864 0.1 -0.903998 0.984174 0.011903 0.164825
0.797314 0.1 -0.675 0.952485 0.0162798 0.137488
0.797314 0.1 0.675 0.94803 0.017486 0.272823
0.467897 0.1 0.9375 0.987338 0.0117813 0.245671
0.467897 0.1 -0.9375 0.987722 0.0115922 0.169883
0 0.1 1.05 0.978148 0 0.207912
0 0.1 -1.05 0.978148 0 0.207912
0.835107 0.1 -0.6375 0.944936 0.0175287 0.133626
0.835107 0.1 0.6375 0.939658 0.018953 0.275279
1.04168 0.1 -0.145832 0.855749 0.0361922 0.164411
1.04168 0.1 0.145832 0.851899 0.0374214 0.226426
1.02149 0.1 -0.25874 0.870517 0.0326915 0.145493
1.02149 0.1 0.25874 0.864211 0.0346351 0.248052
0.96969 0.1 -0.4125 0.899224 0.0263952 0.130429
0.96969 0.1 0.4125 0.891521 0.0286514 0.269101
0.411108 0.1 0.975 0.989793 0.0116995 0.240953
0.411108 0.1 -0.975 0.989989 0.011569 0.174805
0.871687 0.1 -0.6 0.936389 0.0190226 0.13016
0.871687 0.1 0.6 0.930272 0.020708 0.277106
1.0579 0.1 -0.0360525 0.845425 0.0389022 0.18635
1.0579 0.1 0.0360525 0.8444 0.0392343 0.202418
0.990306 0.1 -0.375 0.891211 0.0281094 0.132719
0.990306 0.1 0.375 0.883579 0.0303844 0.265098
0.150379 0.1 1.05 0.989177 0.0140898 0.220539
0.150379 0.1 -1.05 0.98911 0.0141082 0.195395
1.0579 0.1 -0.108157 0.848244 0.0382369 0.170615
1.0579 0.1 0.108157 0.845206 0.0392328 0.218524
1.04168 0.1 -0.218749 0.861029 0.0351151 0.150157
1.04168 0.1 0.218749 0.855334 0.0369396 0.241561
0.905821 0.1 -0.5625 0.927298 0.0206065 0.127047
0.905821 0.1 0.5625 0.920421 0.0225424 0.278434
0 0.1 1.06799 0.978148 0 0.207912
0 0.1 -1.06799 0.978148 0 0.207912
0.0363518 0.1 -1.06799 0.980964 0.00706705 0.204477
0.0363518 0.1 1.06799 0.980986 0.00705448 0.211381
0.350249 0.1 1.0125 0.992001 0.0116625 0.235946
0.350249 0.1 -1.0125 0.992015 0.0115921 0.179951
1.0579 0.1 -0.180262 0.852826 0.0372522 0.155555
1.0579 0.1 0.180262 0.847794 0.038899 0.234306
1.02149 0.1 0.332665 0.869954 0.0337601 0.261549
1.02149 0.1 -0.332665 0.877768 0.0313266 0.133336
0.93886 0.1 -0.525 0.917657 0.0227227 0.124328
0.93886 0.1 0.525 0.909927 0.0249677 0.279116
1.08012 0.1 4.48137e-18 0.83704 0.0416398 0.193586
1.04168 0.1 -0.291665 0.867792 0.0337786 0.136996
1.04168 0.1 0.291665 0.860402 0.0361622 0.255943
1.08012 0.1 -0.0709942 0.839018 0.0411017 0.177181
1.08012 0.1 0.0709942 0.836912 0.0418255 0.21018
0.96969 0.1 -0.4875 0.907377 0.0249785 0.12205
0.96969 0.1 0.4875 0.898918 0.0274956 0.279182
1.0579 0.1 -0.252367 0.859002 0.0359753 0.141488
1.0579 0.1 0.252367 0.852093 0.0382488 0.249475
0.990306 0.1 -0.45 0.899385 0.0266617 0.123351
0.990306 0.1 0.45 0.890799 0.0292607 0.276155
0.287374 0.1 1.05 0.993165 0.0124392 0.231006
0.287374 0.1 -1.05 0.993125 0.0124103 0.184948
0.714971 0.1 0.821002 0.966499 0.0144637 0.269125
1.08012 0.1 0.141988 0.838631 0.0416595 0.226633
1.08012 0.1 -0.141988 0.842818 0.0402183 0.161282
0.0757758 0.1 -1.0875 0.984075 0.014874 0.200749
0.0757758 0.1 1.0875 0.98412 0.0148483 0.21514
0.714971 0.1 -0.825 0.969683 0.0136055 0.144285
0.756814 0.1 -0.7875 0.964103 0.0144215 0.1395
0.756814 0.1 0.7875 0.960555 0.0153926 0.273087
0.67013 0.1 -0.8625 0.974826 0.0128443 0.149242
0.67013 0.1 0.8625 0.972719 0.0134775 0.264957
0.797314 0.1 -0.75 0.957782 0.0154906 0.134828
0.797314 0.1 0.75 0.953337 0.0166917 0.276665
0.623803 0.1 0.9 0.977551 0.0128003 0.260587
0.835107 0.1 -0.7125 0.950938 0.01663 0.130357
0.835107 0.1 0.7125 0.94561 0.018064 0.279893
0.623803 0.1 -0.903998 0.978795 0.0123486 0.154135
0.574156 0.1 0.9375 0.98201 0.0121682 0.255945
0.574156 0.1 -0.9375 0.983041 0.0117968 0.159282
1.02149 0.1 -0.406591 0.886144 0.0297794 0.122645
1.02149 0.1 0.406591 0.877081 0.0326369 0.273934
1.08012 0.1 -0.212982 0.848344 0.0390106 0.146229
1.08012 0.1 0.212982 0.842135 0.04115 0.242615
1.10076 0.1 -0.034981 0.829907 0.0440059 0.184302
1.10076 0.1 0.034981 0.828808 0.0443954 0.201342
0.871687 0.1 -0.675 0.94307 0.0180019 0.126192
0.871687 0.1 0.675 0.936814 0.0197153 0.282587
1.04168 0.1 -0.364581 0.87584 0.0322242 0.125189
1.04168 0.1 0.364581 0.866971 0.0351087 0.269309
1.10076 0.1 0.104943 0.829621 0.0444165 0.218436
1.10076 0.1 -0.104943 0.832863 0.0432449 0.167592
0.522864 0.1 0.975 0.985529 0.0118077 0.251246
0.522864 0.1 -0.975 0.986211 0.0115283 0.164295