# UMean  POINT_DATA 63889
# x  y  z  UMean_x  UMean_y  UMean_z
0 0.5 3.39582e-17 0.978148 0 0.207912
0 0.5 -0.00617965 0.978148 0 0.207912
0 0.5 0.00617965 0.978148 0 0.207912
0.0124871 0.5 -0.00617965 0.978116 0.000918092 0.20788
0.0124871 0.5 0.00617965 0.978117 0.00091834 0.208
0 0.5 -0.0688203 0.978148 0 0.207912
0 0.5 0.0688203 0.978148 0 0.207912
0.0124871 0.5 -0.0688203 0.978116 0.000918092 0.20788
0.0124871 0.5 0.0688203 0.978117 0.00091834 0.208
0 0.5 -0.075 0.978148 0 0.207912
0 0.5 0.075 0.978148 0 0.207912
0 0.5 -0.0811797 0.978148 0 0.207912
0 0.5 0.0811797 0.978148 0 0.207912
0.0124871 0.5 -0.0811797 0.978114 0.00091445 0.207757
0.0124871 0.5 0.0811797 0.978116 0.000915167 0.208122
0.0757758 0.5 -0.0375 0.977927 0.00556431 0.207722
0.0757758 0.5 0.0375 0.977933 0.00556571 0.208443
0.0757758 0.5 -0.1125 0.977918 0.00554214 0.206978
0.0757758 0.5 0.1125 0.977929 0.00554637 0.20918
0 0.5 -0.14382 0.978148 0 0.207912
0 0.5 0.14382 0.978148 0 0.207912
0.0124871 0.5 -0.14382 0.978114 0.00091445 0.207757
0.0124871 0.5 0.14382 0.978116 0.000915167 0.208122
0 0.5 -0.15 0.978148 0 0.207912
0 0.5 0.15 0.978148 0 0.207912
0.151149 0.5 -0.00137326 0.976734 0.00932837 0.208124
0 0.5 -0.15618 0.978148 0 0.207912
0 0.5 0.15618 0.978148 0 0.207912
0.0124871 0.5 -0.15618 0.978117 0.000906798 0.207638
0.0124871 0.5 0.15618 0.978118 0.000908367 0.20824
0.151149 0.5 -0.075 0.976722 0.00933159 0.206776
0.151149 0.5 0.075 0.976737 0.00934342 0.209381
0.0757758 0.5 -0.1875 0.977933 0.00549594 0.206257
0.0757758 0.5 0.1875 0.97794 0.00550509 0.209893
0.151149 0.5 -0.15 0.976747 0.0092728 0.205491
0.151149 0.5 0.15 0.976766 0.00929696 0.210664
0 0.5 -0.21882 0.978148 0 0.207912
0 0.5 0.21882 0.978148 0 0.207912
0.0124871 0.5 -0.21882 0.978117 0.000906798 0.207638
0.0124871 0.5 0.21882 0.978118 0.000908367 0.20824
0.219992 0.5 -0.0375 0.975594 0.0128924 0.207146
0.219992 0.5 0.0375 0.975607 0.0129017 0.209003
0 0.5 -0.225 0.978148 0 0.207912
0 0.5 0.225 0.978148 0 0.207912
0 0.5 -0.23118 0.978148 0 0.207912
0 0.5 0.23118 0.978148 0 0.207912
0.0124871 0.5 -0.23118 0.978119 0.000895861 0.207524
0.0124871 0.5 0.23118 0.978121 0.00089805 0.208354
0.219992 0.5 -0.1125 0.97561 0.0128327 0.205333
0.219992 0.5 0.1125 0.975637 0.0128639 0.210822
0.151149 0.5 -0.225 0.976802 0.00918114 0.204245
0.151149 0.5 0.225 0.976823 0.0092159 0.211911
0.0757758 0.5 -0.2625 0.977947 0.00542974 0.205567
0.0757758 0.5 0.2625 0.977957 0.00544238 0.21058
0.288069 0.5 -0.00137326 0.972702 0.0163799 0.207988
0.219992 0.5 -0.1875 0.975685 0.0127288 0.203543
0.219992 0.5 0.1875 0.975714 0.0127786 0.212615
0 0.5 -0.29382 0.978148 0 0.207912
0 0.5 0.29382 0.978148 0 0.207912
0.0124871 0.5 -0.29382 0.978119 0.000895861 0.207524
0.0124871 0.5 0.29382 0.978121 0.00089805 0.208354
0.288069 0.5 -0.075 0.972702 0.0163546 0.205485
0.288069 0.5 0.075 0.972722 0.0163896 0.210326
0 0.5 -0.3 0.978148 0 0.207912
0 0.5 0.3 0.978148 0 0.207912
0 0.5 -0.30618 0.978148 0 0.207912
0 0.5 0.30618 0.978148 0 0.207912
0.0124871 0.5 -0.30618 0.978122 0.000881994 0.207416
0.0124871 0.5 0.30618 0.978125 0.000884533 0.208461
0.288069 0.5 -0.15 0.972803 0.0162434 0.203112
0.288069 0.5 0.15 0.972829 0.0163122 0.212712
0.151149 0.5 -0.3 0.976875 0.0090594 0.203059
0.151149 0.5 0.3 0.976902 0.00910221 0.213101
0.219992 0.5 -0.2625 0.975795 0.0125831 0.20183
0.219992 0.5 0.2625 0.975831 0.0126475 0.214338
0.0757758 0.5 -0.3375 0.977966 0.00534573 0.204915
0.0757758 0.5 0.3375 0.97798 0.00536029 0.211227
0.350249 0.5 -0.0375 0.969938 0.0196774 0.206247
0.350249 0.5 0.0375 0.96995 0.0197019 0.209235
0.288069 0.5 -0.225 0.972985 0.0160755 0.200813
0.288069 0.5 0.225 0.973012 0.0161734 0.215032
0.350249 0.5 -0.1125 0.970031 0.0195745 0.203306
0.350249 0.5 0.1125 0.970056 0.0196478 0.212193
0 0.5 0.36882 0.978148 0 0.207912
0 0.5 -0.36882 0.978148 0 0.207912
0.0124871 0.5 -0.36882 0.978122 0.000881994 0.207416
0.0124871 0.5 0.36882 0.978125 0.000884533 0.208461
0 0.5 -0.375 0.978148 0 0.207912
0 0.5 0.375 0.978148 0 0.207912
0 0.5 -0.38118 0.978148 0 0.207912
0 0.5 0.38118 0.978148 0 0.207912
0.0124871 0.5 -0.38118 0.978126 0.000865564 0.207315
0.0124871 0.5 0.38118 0.978129 0.000868213 0.20856
0.350249 0.5 -0.1875 0.970244 0.0193997 0.200431
0.350249 0.5 0.1875 0.970267 0.0195171 0.215093
0.219992 0.5 -0.3375 0.975936 0.0123982 0.200206
0.219992 0.5 0.3375 0.975982 0.0124741 0.215974
0.151149 0.5 -0.375 0.976967 0.00891015 0.201944
0.151149 0.5 0.375 0.977 0.00895878 0.214219
0.411736 0.5 -0.00137326 0.965818 0.023077 0.207544
0.288069 0.5 -0.3 0.973234 0.0158544 0.198624
0.288069 0.5 0.3 0.973264 0.0159766 0.217252
0.411736 0.5 -0.075 0.965863 0.0230153 0.20385
0.411736 0.5 0.075 0.965866 0.0230875 0.211001
0.0757758 0.5 -0.4125 0.97799 0.00524607 0.204307
0.0757758 0.5 0.4125 0.978008 0.00526112 0.211828
0.350249 0.5 -0.2625 0.970562 0.019158 0.197678
0.350249 0.5 0.2625 0.970582 0.0193132 0.217891
0.411736 0.5 -0.15 0.966099 0.022837 0.200354
0.411736 0.5 0.15 0.966093 0.0229784 0.214535
0 0.5 -0.44382 0.978148 0 0.207912
0 0.5 0.44382 0.978148 0 0.207912
0.0124871 0.5 -0.44382 0.978126 0.000865564 0.207315
0.0124871 0.5 0.44382 0.978129 0.000868213 0.20856
0 0.5 -0.45 0.978148 0 0.207912
0 0.5 0.45 0.978148 0 0.207912
0 0.5 -0.45618 0.978148 0 0.207912
0 0.5 0.45618 0.978148 0 0.207912
0.0124871 0.5 -0.45618 0.978131 0.000846875 0.207223
0.0124871 0.5 0.45618 0.978135 0.000849391 0.208651
0.219992 0.5 -0.4125 0.976109 0.0121773 0.198693
0.219992 0.5 0.4125 0.976163 0.0122619 0.217498
0.411736 0.5 0.225 0.96647 0.022776 0.217971
0.411736 0.5 -0.225 0.966495 0.0225719 0.196978
0.467897 0.5 0.0375 0.961874 0.0263271 0.209198
0.467897 0.5 -0.0375 0.961878 0.0262795 0.205032
0.288069 0.5 -0.375 0.973543 0.0155837 0.196573
0.288069 0.5 0.375 0.973579 0.0157264 0.21934
0.151149 0.5 -0.45 0.977076 0.00873563 0.200914
0.151149 0.5 0.45 0.977115 0.00878821 0.215251
0.467897 0.5 -0.1125 0.962088 0.0261182 0.200923
0.467897 0.5 0.1125 0.96207 0.0262591 0.213345
0.350249 0.5 -0.3375 0.970971 0.0188529 0.195079
0.350249 0.5 0.3375 0.970993 0.0190401 0.220545
0.0757758 0.5 0.4875 0.978041 0.00514666 0.212376
0.0757758 0.5 -0.4875 0.978019 0.00513251 0.203751
0.467897 0.5 -0.1875 0.962508 0.025849 0.196933
0.467897 0.5 0.1875 0.962458 0.0260775 0.217405
0.411736 0.5 -0.3 0.967036 0.0222262 0.193774
0.411736 0.5 0.3 0.966992 0.0224851 0.221257
0 0.5 -0.51882 0.978148 0 0.207912
0 0.5 0.51882 0.978148 0 0.207912
0.0124871 0.5 -0.51882 0.978131 0.000846875 0.207223
0.0124871 0.5 0.51882 0.978135 0.000849391 0.208651
0.523432 0.5 -0.00137326 0.95679 0.0296687 0.206835
0 0.5 -0.525 0.978148 0 0.207912
0 0.5 0.525 0.978148 0 0.207912
0.523432 0.5 -0.075 0.95691 0.0295597 0.201901
0.523432 0.5 0.075 0.956866 0.0296862 0.211459
0 0.5 -0.53118 0.978148 0 0.207912
0 0.5 0.53118 0.978148 0 0.207912
0.0124871 0.5 -0.53118 0.978137 0.000826239 0.207141
0.0124871 0.5 0.53118 0.978141 0.000828346 0.208731
0.288069 0.5 -0.45 0.973908 0.0152674 0.194683
0.288069 0.5 0.45 0.973948 0.0154276 0.221271
0.219992 0.5 -0.4875 0.976309 0.0119222 0.197307
0.219992 0.5 0.4875 0.976371 0.0120139 0.218895
0.467897 0.5 -0.2625 0.963128 0.0254808 0.193112
0.467897 0.5 0.2625 0.96304 0.0257881 0.221324
0.350249 0.5 -0.4125 0.971467 0.0184899 0.192668
0.350249 0.5 0.4125 0.97149 0.0187051 0.223021
0.523432 0.5 -0.15 0.957336 0.0292985 0.197241
0.523432 0.5 0.15 0.957238 0.0295463 0.216194
0.151149 0.5 -0.525 0.9772 0.00853796 0.199979
0.151149 0.5 0.525 0.977244 0.00859287 0.216187
0.411736 0.5 -0.375 0.967707 0.021806 0.190787
0.411736 0.5 0.375 0.967645 0.0221128 0.224346
0.0757758 0.5 -0.5625 0.978054 0.00500683 0.203251
0.0757758 0.5 0.5625 0.978079 0.00501843 0.212865
0.523432 0.5 -0.225 0.958026 0.028915 0.192758
0.523432 0.5 0.225 0.957862 0.0292753 0.220795
0.574156 0.5 0.0375 0.951895 0.0329215 0.208944
0.574156 0.5 -0.0375 0.951931 0.0328422 0.203544
0.467897 0.5 -0.3375 0.963924 0.0250217 0.189531
0.467897 0.5 0.3375 0.963801 0.0253975 0.225031
0.574156 0.5 -0.1125 0.952299 0.0326099 0.198223
0.574156 0.5 0.1125 0.952187 0.0328445 0.214331
0 0.5 -0.59382 0.978148 0 0.207912
0 0.5 0.59382 0.978148 0 0.207912
0.0124871 0.5 -0.59382 0.978137 0.000826239 0.207141
0.0124871 0.5 0.59382 0.978141 0.000828346 0.208731
0.288069 0.5 -0.525 0.974321 0.0149091 0.192976
0.288069 0.5 0.525 0.974362 0.0150847 0.223024
0 0.5 -0.6 0.978148 0 0.207912
0 0.5 0.6 0.978148 0 0.207912
0.350249 0.5 0.4875 0.97206 0.0183138 0.225291
0.350249 0.5 -0.4875 0.972038 0.0180734 0.190473
0.523432 0.5 -0.3 0.958961 0.0284192 0.188522
0.523432 0.5 0.3 0.958728 0.0288803 0.225193
0.219992 0.5 -0.5625 0.976531 0.0116361 0.196064
0.219992 0.5 0.5625 0.976596 0.011733 0.22015
0.574156 0.5 -0.1875 0.952993 0.032233 0.193068
0.574156 0.5 0.1875 0.952789 0.0326135 0.219606
0 0.5 -0.60618 0.978148 0 0.207912
0 0.5 0.60618 0.978148 0 0.207912
0.0124871 0.5 -0.60618 0.978144 0.000803996 0.207068
0.0124871 0.5 0.60618 0.978148 0.000805476 0.208802
0.411736 0.5 -0.45 0.968494 0.0213178 0.188052
0.411736 0.5 0.45 0.968414 0.0216674 0.227202
0.151149 0.5 -0.6 0.977337 0.00831979 0.199149
0.151149 0.5 0.6 0.977384 0.0083754 0.217017
0.62168 0.5 4.33681e-17 0.946368 0.0360841 0.205979
0.467897 0.5 -0.4125 0.964881 0.0244787 0.186229
0.467897 0.5 0.4125 0.964722 0.0249154 0.228491
0.624316 0.5 0.0729401 0.946155 0.0362912 0.211753
0.624316 0.5 -0.075 0.946279 0.0360963 0.199681
0.574156 0.5 -0.2625 0.954002 0.0317209 0.188166
0.574156 0.5 0.2625 0.953698 0.0322352 0.224692
0.0757758 0.5 -0.6375 0.978094 0.00487106 0.202812
0.0757758 0.5 0.6375 0.97812 0.00487901 0.213291
0.624316 0.5 -0.15 0.946949 0.0357408 0.19381
0.624316 0.5 0.15 0.946691 0.0361233 0.217743
0.523432 0.5 -0.375 0.960115 0.0278204 0.184594
0.523432 0.5 0.375 0.959813 0.0283711 0.229321
0.350249 0.5 -0.5625 0.972669 0.0176092 0.188517
0.350249 0.5 0.5625 0.972687 0.0178725 0.22733
0.624316 0.5 -0.225 0.948011 0.0352251 0.188185
0.624316 0.5 0.225 0.947608 0.0357829 0.223562
0.288069 0.5 -0.6 0.974769 0.0145137 0.191468
0.288069 0.5 0.6 0.974809 0.0147023 0.224583
0.574156 0.5 -0.3375 0.955293 0.0310861 0.183583
0.574156 0.5 0.3375 0.954888 0.03172 0.229506
0.411736 0.5 0.525 0.969279 0.0211569 0.229791
0.411736 0.5 -0.525 0.969376 0.0207686 0.1856
0 0.5 0.66882 0.978148 0 0.207912
0 0.5 -0.66882 0.978148 0 0.207912
0.0124871 0.5 -0.66882 0.978144 0.000803996 0.207068
0.0124871 0.5 0.66882 0.978148 0.000805476 0.208802
0.67013 0.5 -0.0375 0.940455 0.0394378 0.20183
0.67013 0.5 0.0375 0.94037 0.0395543 0.208521
0.219992 0.5 -0.6375 0.976769 0.0113225 0.194973
0.219992 0.5 0.6375 0.976836 0.0114227 0.221253
0 0.5 -0.675 0.978148 0 0.207912
0 0.5 0.675 0.978148 0 0.207912
0.467897 0.5 -0.4875 0.965974 0.0238603 0.183246
0.467897 0.5 0.4875 0.965782 0.0243522 0.231653
0.67013 0.5 -0.1125 0.941022 0.0391265 0.195247
0.67013 0.5 0.1125 0.940763 0.0394717 0.215204
0 0.5 -0.68118 0.978148 0 0.207912
0 0.5 0.68118 0.978148 0 0.207912
0.0124871 0.5 -0.68118 0.978151 0.000780477 0.207006
0.0124871 0.5 0.68118 0.978156 0.000781301 0.208861
0.523432 0.5 -0.45 0.961457 0.0271287 0.181024
0.523432 0.5 0.45 0.96109 0.0277595 0.233127
0.151149 0.5 -0.675 0.977483 0.00808425 0.19843
0.151149 0.5 0.675 0.977531 0.00813906 0.217736
0.624316 0.5 -0.3 0.949437 0.0345616 0.182892
0.624316 0.5 0.3 0.948885 0.0352794 0.22912
0.67013 0.5 -0.1875 0.942061 0.0386302 0.188887
0.67013 0.5 0.1875 0.941613 0.0391923 0.221753
0.574156 0.5 0.4125 0.956329 0.0310794 0.233978
0.574156 0.5 -0.4125 0.956832 0.0303392 0.179389
0.708171 0.5 3.5345e-17 0.934982 0.0423766 0.205203
0.0757758 0.5 -0.7125 0.978137 0.00472731 0.202435
0.0757758 0.5 0.7125 0.978165 0.00473134 0.213653
0.715434 0.5 0.0736267 0.934246 0.0428683 0.212111
0.715434 0.5 -0.075 0.934343 0.0426643 0.197229
0.67013 0.5 -0.2625 0.943545 0.0379603 0.182861
0.67013 0.5 0.2625 0.942903 0.0387232 0.228057
0.350249 0.5 -0.6375 0.973345 0.0171039 0.186816
0.350249 0.5 0.6375 0.973358 0.0173867 0.229122
0.411736 0.5 0.6 0.970217 0.0205888 0.232088
0.411736 0.5 -0.6 0.970331 0.0201665 0.183452
0.624316 0.5 -0.375 0.951185 0.033764 0.178011
0.624316 0.5 0.375 0.950487 0.0346255 0.234327
0.715434 0.5 -0.15 0.93531 0.0422049 0.190099
0.715434 0.5 0.15 0.934823 0.042744 0.21923
0.467897 0.5 -0.5625 0.967174 0.0231759 0.180613
0.467897 0.5 0.5625 0.966952 0.0237172 0.234486
0.288069 0.5 -0.675 0.975243 0.014087 0.190168
0.288069 0.5 0.675 0.97528 0.0142855 0.225936
0.523432 0.5 -0.525 0.962954 0.0263551 0.177851
0.523432 0.5 0.525 0.962528 0.0270577 0.236567
0 0.5 0.74382 0.978148 0 0.207912
0 0.5 -0.74382 0.978148 0 0.207912
0.0124871 0.5 -0.74382 0.978151 0.000780477 0.207006
0.0124871 0.5 0.74382 0.978156 0.000781301 0.208861
0.219992 0.5 0.7125 0.977084 0.011087 0.222195
0.219992 0.5 -0.7125 0.977019 0.0109861 0.194042
0.715434 0.5 -0.225 0.936817 0.0415449 0.183288
0.715434 0.5 0.225 0.936073 0.0423335 0.226323
0 0.5 -0.75 0.978148 0 0.207912
0 0.5 0.75 0.978148 0 0.207912
0.67013 0.5 -0.3375 0.945435 0.0371324 0.177257
0.67013 0.5 0.3375 0.9446 0.038078 0.234025
0.574156 0.5 -0.4875 0.958579 0.0294932 0.175633
0.574156 0.5 0.4875 0.957986 0.0303291 0.238057
0 0.5 0.75618 0.978148 0 0.207912
0 0.5 -0.75618 0.978148 0 0.207912
0.0124871 0.5 -0.75618 0.978158 0.000756082 0.206955
0.0124871 0.5 0.75618 0.978163 0.000756169 0.20891
0.756814 0.5 0.0375 0.92769 0.0462307 0.207971
0.756814 0.5 -0.0375 0.927841 0.0460718 0.19993
0.151149 0.5 0.75 0.977682 0.00788759 0.21834
0.151149 0.5 -0.75 0.977635 0.00783491 0.197824
0.756814 0.5 -0.1125 0.928646 0.0456736 0.192028
0.756814 0.5 0.1125 0.928191 0.046145 0.21601
0.624316 0.5 -0.45 0.953208 0.0328468 0.17361
0.624316 0.5 0.45 0.952372 0.0338364 0.239112
0.715434 0.5 -0.3 0.938824 0.0406994 0.176909
0.715434 0.5 0.3 0.937822 0.0417178 0.233089
0.756814 0.5 -0.1875 0.930088 0.0450472 0.184416
0.756814 0.5 0.1875 0.929316 0.0458171 0.223888
0.67013 0.5 -0.4125 0.947676 0.0361633 0.172164
0.67013 0.5 0.4125 0.946652 0.0372715 0.23954
0.411736 0.5 -0.675 0.971336 0.0195207 0.181622
0.411736 0.5 0.675 0.971207 0.0199714 0.234075
0.467897 0.5 -0.6375 0.968453 0.0224359 0.17835
0.467897 0.5 0.6375 0.968203 0.0230199 0.236965
0.0757758 0.5 -0.7875 0.978182 0.00457795 0.202124
0.0757758 0.5 0.7875 0.97821 0.00457782 0.213949
0.350249 0.5 -0.7125 0.974049 0.0165652 0.185378
0.350249 0.5 0.7125 0.974056 0.0168633 0.230654
0.523432 0.5 0.6 0.964089 0.0262773 0.239606
0.523432 0.5 -0.6 0.964565 0.0255121 0.175104
0.797732 0.5 1.60462e-17 0.920861 0.0495657 0.203265
0.756814 0.5 -0.2625 0.932129 0.0442075 0.177223
0.756814 0.5 0.2625 0.931033 0.0452551 0.231467
0.797732 0.5 0.0736267 0.921113 0.0495861 0.212322
0.797732 0.5 -0.075 0.92143 0.0492519 0.194585
0.288069 0.5 0.75 0.975765 0.0138401 0.227075
0.288069 0.5 -0.75 0.975732 0.0136353 0.189083
0.574156 0.5 -0.5625 0.960487 0.028562 0.172353
0.574156 0.5 0.5625 0.959816 0.0294823 0.241695
0.715434 0.5 -0.375 0.941273 0.0396864 0.171062
0.715434 0.5 0.375 0.940021 0.0409127 0.239418
0.797732 0.5 -0.15 0.922742 0.0486809 0.186146
0.797732 0.5 0.15 0.921961 0.0493937 0.220696
0.624316 0.5 -0.525 0.955451 0.0318256 0.169735
0.624316 0.5 0.525 0.954493 0.0329291 0.243421
0.219992 0.5 -0.7875 0.977274 0.0106319 0.193272
0.219992 0.5 0.7875 0.977336 0.0107313 0.222975
0 0.5 -0.81882 0.978148 0 0.207912
0 0.5 0.81882 0.978148 0 0.207912
0.0124871 0.5 -0.81882 0.978158 0.000756082 0.206955
0.0124871 0.5 0.81882 0.978163 0.000756169 0.20891
0 0.5 -0.825 0.978148 0 0.207912
0 0.5 0.825 0.978148 0 0.207912
0.756814 0.5 -0.3375 0.934713 0.0431725 0.170583
0.756814 0.5 0.3375 0.933303 0.0444744 0.238621
0.67013 0.5 0.4875 0.949008 0.0363228 0.244563
0.67013 0.5 -0.4875 0.950203 0.0350694 0.167643
0.797732 0.5 0.225 0.92358 0.0489118 0.229115
0.797732 0.5 -0.225 0.924764 0.0478669 0.178106
0 0.5 -0.83118 0.978148 0 0.207912
0 0.5 0.83118 0.978148 0 0.207912
0.0124871 0.5 -0.83118 0.978166 0.000731124 0.206914
0.0124871 0.5 0.83118 0.97817 0.000730523 0.208948
0.835107 0.5 -0.0375 0.914361 0.0527146 0.197884
0.835107 0.5 0.0375 0.914128 0.0529192 0.207332
0.151149 0.5 -0.825 0.977789 0.00757564 0.197332
0.151149 0.5 0.825 0.977834 0.00762504 0.218829
0.835107 0.5 0.1125 0.91474 0.0528319 0.216782
0.835107 0.5 -0.1125 0.915441 0.0522242 0.188612
0.715434 0.5 -0.45 0.944092 0.0385251 0.165826
0.715434 0.5 0.45 0.942606 0.039937 0.245212
0.797732 0.5 -0.3 0.927438 0.0468278 0.170612
0.797732 0.5 0.3 0.925855 0.0481804 0.237132
0.467897 0.5 0.7125 0.969507 0.0222704 0.239074
0.467897 0.5 -0.7125 0.969778 0.0216518 0.176465
0.523432 0.5 -0.675 0.966251 0.024613 0.172797
0.523432 0.5 0.675 0.965734 0.0254306 0.242222
0.411736 0.5 0.75 0.972226 0.0193132 0.235744
0.411736 0.5 -0.75 0.972368 0.018841 0.180116
0.835107 0.5 -0.1875 0.917345 0.0514606 0.179698
0.835107 0.5 0.1875 0.916166 0.0524548 0.226042
0.574156 0.5 0.6375 0.96177 0.0285533 0.24486
0.574156 0.5 -0.6375 0.962505 0.0275607 0.169572
0.350249 0.5 -0.7875 0.974767 0.0160014 0.184205
0.350249 0.5 0.7875 0.974767 0.0163092 0.231922
0.756814 0.5 -0.4125 0.93776 0.041964 0.164576
0.756814 0.5 0.4125 0.936049 0.0434947 0.245244
0.0757758 0.5 -0.8625 0.978227 0.00442515 0.201875
0.0757758 0.5 0.8625 0.978253 0.00442102 0.214181
0.624316 0.5 -0.6 0.957852 0.0307178 0.166422
0.624316 0.5 0.6 0.956793 0.0319198 0.247207
0.872064 0.5 4.81386e-17 0.907146 0.0561616 0.20188
0.870122 0.5 0.075 0.907802 0.0560279 0.212486
0.288069 0.5 -0.825 0.976226 0.0131654 0.188212
0.288069 0.5 0.825 0.976255 0.0133727 0.227999
0.67013 0.5 -0.5625 0.952949 0.0338702 0.163739
0.67013 0.5 0.5625 0.95161 0.035251 0.249016
0.872064 0.5 -0.075 0.9079 0.0557779 0.191793
0.835107 0.5 -0.2625 0.920023 0.0504415 0.171312
0.835107 0.5 0.2625 0.918356 0.0517978 0.234945
0.797732 0.5 -0.375 0.930683 0.0455853 0.16378
0.797732 0.5 0.375 0.928722 0.0472185 0.24462
0.872064 0.5 0.14794 0.908472 0.0559881 0.222152
0.872064 0.5 -0.15 0.909594 0.0550911 0.182001
0.715434 0.5 0.525 0.94551 0.0388121 0.250402
0.715434 0.5 -0.525 0.947201 0.0372361 0.161265
0.219992 0.5 -0.8625 0.977531 0.0102655 0.192663
0.219992 0.5 0.8625 0.97759 0.0103613 0.223593
0 0.5 -0.89382 0.978148 0 0.207912
0 0.5 0.89382 0.978148 0 0.207912
0.0124871 0.5 -0.89382 0.978166 0.000731124 0.206914
0.0124871 0.5 0.89382 0.97817 0.000730523 0.208948
0 0.5 -0.9 0.978148 0 0.207912
0 0.5 0.9 0.978148 0 0.207912
0.756814 0.5 -0.4875 0.941181 0.0406032 0.159295
0.756814 0.5 0.4875 0.939198 0.0423366 0.251211
0.872064 0.5 -0.225 0.912185 0.0541176 0.172698
0.872064 0.5 0.225 0.91049 0.0554353 0.231939
0.835107 0.5 0.3375 0.921257 0.0508777 0.243325
0.835107 0.5 -0.3375 0.923386 0.0491883 0.163601
0 0.5 -0.90618 0.978148 0 0.207912
0 0.5 0.90618 0.978148 0 0.207912
0.0124871 0.5 -0.90618 0.978172 0.000706069 0.206883
0.0124871 0.5 0.90618 0.978176 0.000704811 0.208976
0.905821 0.5 0.0375 0.900151 0.0594839 0.206626
0.905821 0.5 -0.0375 0.900473 0.0592318 0.195733
0.151149 0.5 -0.9 0.977943 0.00731052 0.196952
0.151149 0.5 0.9 0.977985 0.00735589 0.219204
0.905821 0.5 -0.1125 0.901847 0.0586471 0.185052
0.905821 0.5 0.1125 0.90088 0.0593968 0.217526
0.523432 0.5 -0.75 0.967971 0.0236713 0.170933
0.523432 0.5 0.75 0.967426 0.02453 0.244403
0.574156 0.5 -0.7125 0.964585 0.0265052 0.167299
0.574156 0.5 0.7125 0.963802 0.0275565 0.247534
0.797732 0.5 -0.45 0.934403 0.0441641 0.157709
0.797732 0.5 0.45 0.932093 0.0460482 0.251448
0.467897 0.5 0.7875 0.970834 0.0214793 0.240809
0.467897 0.5 -0.7875 0.97112 0.020835 0.174959
0.624316 0.5 -0.675 0.96035 0.0295414 0.163686
0.624316 0.5 0.675 0.959214 0.0308257 0.250444
0.411736 0.5 -0.825 0.973404 0.018137 0.17893
0.411736 0.5 0.825 0.973254 0.0186234 0.237093
0.872064 0.5 -0.3 0.915594 0.0528786 0.164053
0.872064 0.5 0.3 0.913335 0.054588 0.241245
0.67013 0.5 0.6375 0.954384 0.0340749 0.252867
0.67013 0.5 -0.6375 0.955839 0.032586 0.160479
0.905821 0.5 -0.1875 0.904249 0.0577439 0.174801
0.905821 0.5 0.1875 0.902624 0.0589728 0.228202
0.350249 0.5 -0.8625 0.975484 0.0154205 0.183293
0.350249 0.5 0.8625 0.975479 0.0157329 0.232926
0.835107 0.5 -0.4125 0.927337 0.0477262 0.156674
0.835107 0.5 0.4125 0.924778 0.0497181 0.251068
0.715434 0.5 -0.6 0.950515 0.0358425 0.157416
0.715434 0.5 0.6 0.948656 0.0375603 0.254939
0.939201 0.5 3.31766e-17 0.892828 0.0628292 0.200425
0.0757758 0.5 -0.9375 0.978268 0.00427124 0.201689
0.0757758 0.5 0.9375 0.978293 0.0042634 0.214351
0.939112 0.5 0.075 0.8931 0.0629155 0.213076
0.939201 0.5 -0.075 0.893791 0.0623701 0.18886
0.756814 0.5 -0.5625 0.944879 0.0391156 0.154788
0.756814 0.5 0.5625 0.942669 0.0410271 0.25649
0.905821 0.5 0.2625 0.905319 0.0582227 0.23846
0.905821 0.5 -0.2625 0.907608 0.0565424 0.165186
0.288069 0.5 -0.9 0.976718 0.0126842 0.187548
0.288069 0.5 0.9 0.976742 0.0128908 0.228712
0.872064 0.5 -0.375 0.919716 0.0513997 0.156222
0.872064 0.5 0.375 0.916926 0.0534676 0.249915
0.939201 0.5 0.148627 0.894464 0.0626241 0.223859
0.939201 0.5 -0.15 0.89591 0.0615578 0.177647
0.797732 0.5 -0.525 0.93849 0.0425912 0.152475
0.797732 0.5 0.525 0.935873 0.044696 0.257529
0.219992 0.5 -0.9375 0.977789 0.00989292 0.192209
0.219992 0.5 0.9375 0.977843 0.00998389 0.224052
0.939201 0.5 -0.225 0.89913 0.0604108 0.16702
0.939201 0.5 0.225 0.896835 0.0620221 0.234896
0.905821 0.5 -0.3375 0.911816 0.0550689 0.156364
0.905821 0.5 0.3375 0.908889 0.0571658 0.248097
0.835107 0.5 -0.4875 0.931758 0.0460853 0.15064
0.835107 0.5 0.4875 0.928811 0.0483435 0.258003
0 0.5 -0.96882 0.978148 0 0.207912
0 0.5 0.96882 0.978148 0 0.207912
0.0124871 0.5 -0.96882 0.978172 0.000706069 0.206883
0.0124871 0.5 0.96882 0.978176 0.000704811 0.208976
0.96969 0.5 -0.0375 0.885809 0.0660074 0.193474
0.96969 0.5 0.0375 0.885371 0.0663119 0.205917
0.574156 0.5 0.7875 0.965867 0.0265064 0.249713
0.574156 0.5 -0.7875 0.966676 0.0254113 0.165527
0 0.5 -0.975 0.978148 0 0.207912
0 0.5 0.975 0.978148 0 0.207912
0.624316 0.5 -0.75 0.962883 0.0283148 0.161526
0.624316 0.5 0.75 0.961697 0.0296635 0.25312
0.96969 0.5 -0.1125 0.887521 0.0653153 0.18128
0.96969 0.5 0.1125 0.88622 0.0662213 0.218374
0.523432 0.5 -0.825 0.969687 0.0227005 0.169505
0.523432 0.5 0.825 0.969129 0.0235881 0.24615
0.67013 0.5 -0.7125 0.958798 0.0312374 0.15787
0.67013 0.5 0.7125 0.957263 0.0328143 0.256093
0 0.5 -0.98118 0.978148 0 0.207912
0 0.5 0.98118 0.978148 0 0.207912
0.467897 0.5 -0.8625 0.97245 0.0199967 0.173821
0.467897 0.5 0.8625 0.972159 0.0206569 0.242172
0.0124871 0.5 -0.98118 0.978177 0.00068106 0.206862
0.0124871 0.5 0.98118 0.978181 0.000679118 0.208995
0.872064 0.5 0.45 0.921153 0.0521003 0.257796
0.872064 0.5 -0.45 0.924423 0.0497112 0.149324
0.715434 0.5 -0.675 0.953945 0.0343679 0.154297
0.715434 0.5 0.675 0.951959 0.0362034 0.258788
0.939201 0.5 0.3 0.900298 0.0610487 0.245545
0.939201 0.5 -0.3 0.903351 0.0589544 0.157181
0.151149 0.5 -0.975 0.978096 0.00704286 0.196679
0.151149 0.5 0.975 0.978134 0.00708377 0.219471
0.96969 0.5 -0.1875 0.890493 0.0642511 0.169602
0.96969 0.5 0.1875 0.888308 0.0657388 0.230565
0.756814 0.5 0.6375 0.946362 0.0395902 0.261019
0.756814 0.5 -0.6375 0.948754 0.0375272 0.151088
0.411736 0.5 -0.9 0.974424 0.0174179 0.178052
0.411736 0.5 0.9 0.974272 0.0179115 0.238127
0.905821 0.5 -0.4125 0.916746 0.0533523 0.148539
0.905821 0.5 0.4125 0.913234 0.055828 0.256972
0.995005 0.5 0.0749309 0.880334 0.0683648 0.213125
0.797732 0.5 -0.6 0.942829 0.0408954 0.14812
0.797732 0.5 0.6 0.939957 0.0431907 0.262814
1.00005 0.5 3.26706e-18 0.878833 0.0687408 0.198953
0.350249 0.5 0.9375 0.97618 0.0151426 0.233674
0.350249 0.5 -0.9375 0.976189 0.0148299 0.182631
1.00005 0.5 -0.0749309 0.880009 0.0682164 0.185995
0.96969 0.5 -0.2625 0.894618 0.0628391 0.158684
0.96969 0.5 0.2625 0.89156 0.0648766 0.242258
0.835107 0.5 -0.5625 0.93652 0.0442968 0.145553
0.835107 0.5 0.5625 0.933239 0.0467881 0.264109
1.00005 0.5 -0.149862 0.882563 0.0672989 0.173439
0.939201 0.5 -0.375 0.908436 0.057219 0.148314
0.939201 0.5 0.375 0.904675 0.0597567 0.255434
1.00029 0.5 0.148988 0.880797 0.0685112 0.225214
0.0757758 0.5 -1.0125 0.978302 0.00411798 0.201561
0.0757758 0.5 1.0125 0.978325 0.00410635 0.214462
0.288069 0.5 -0.975 0.977201 0.0121968 0.187082
0.288069 0.5 0.975 0.97722 0.0124006 0.229222
0.872064 0.5 -0.525 0.929572 0.0478462 0.143428
0.872064 0.5 0.525 0.925883 0.0505179 0.264779
1.00005 0.5 0.224793 0.883516 0.0678867 0.237586
1.00005 0.5 -0.224793 0.886428 0.0660085 0.161556
0.96969 0.5 0.3375 0.895871 0.0636577 0.253218
0.96969 0.5 -0.3375 0.899778 0.0611095 0.148723
1.02709 0.5 0.0368226 0.87131 0.072106 0.20501
1.02709 0.5 -0.0368226 0.87184 0.0717663 0.191397
0.905821 0.5 0.4875 0.91821 0.0542391 0.264902
0.905821 0.5 -0.4875 0.922232 0.0514297 0.141761
1.02709 0.5 -0.110468 0.87383 0.0710167 0.178053
1.02709 0.5 0.110468 0.871816 0.0723088 0.221812
0.67013 0.5 -0.7875 0.961756 0.0298455 0.155898
0.67013 0.5 0.7875 0.960179 0.0314883 0.258691
0.624316 0.5 -0.825 0.965395 0.0270557 0.159926
0.624316 0.5 0.825 0.964189 0.0284505 0.255237
0.219992 0.5 -1.0125 0.978053 0.00951713 0.1919
0.219992 0.5 1.0125 0.978101 0.00960267 0.224364
0.574156 0.5 -0.8625 0.968736 0.0242937 0.16424
0.574156 0.5 0.8625 0.967919 0.0254179 0.251403
0.715434 0.5 -0.75 0.957404 0.0328364 0.151899
0.715434 0.5 0.75 0.955339 0.0347633 0.261936
0.756814 0.5 -0.7125 0.952702 0.0358662 0.148196
0.756814 0.5 0.7125 0.950185 0.03805 0.264779
0.523432 0.5 0.9 0.970808 0.0226175 0.247473
0.523432 0.5 -0.9 0.971364 0.0217128 0.168492
0.939201 0.5 0.45 0.909832 0.0581768 0.2644
0.939201 0.5 -0.45 0.914218 0.0552415 0.140541
1.04168 0.5 0 0.867457 0.0736122 0.197785
1.02709 0.5 -0.184113 0.877278 0.0698726 0.165264
1.02709 0.5 0.184113 0.874635 0.0715375 0.231997
0 0.5 1.04382 0.978148 0 0.207912
0 0.5 -1.04382 0.978148 0 0.207912
0.0124871 0.5 -1.04382 0.978177 0.00068106 0.206862
0.0124871 0.5 1.04382 0.978181 0.000679118 0.208995
1.00005 0.5 -0.299723 0.891478 0.0643729 0.150581
1.00005 0.5 0.299723 0.887609 0.0668189 0.249506
1.04168 0.5 -0.0729162 0.868756 0.0730561 0.184008
1.04168 0.5 0.0729162 0.867657 0.0737498 0.211711
0.797732 0.5 -0.675 0.947296 0.0391059 0.144661
0.797732 0.5 0.675 0.944238 0.0415592 0.267259
0.467897 0.5 -0.9375 0.973744 0.0191467 0.173033
0.467897 0.5 0.9375 0.973456 0.0198141 0.243177
0 0.5 -1.05 0.978148 0 0.207912
0 0.5 1.05 0.978148 0 0.207912
0.835107 0.5 0.6375 0.937941 0.045081 0.269303
0.835107 0.5 -0.6375 0.941496 0.042393 0.141448
1.04168 0.5 -0.145832 0.871551 0.072093 0.170643
1.04168 0.5 0.145832 0.869347 0.0734675 0.225508
0.96969 0.5 -0.4125 0.905788 0.0590983 0.139898
0.96969 0.5 0.4125 0.901128 0.0621106 0.263263
0 0.5 -1.05618 0.978148 0 0.207912
0 0.5 1.05618 0.978148 0 0.207912
0.0124871 0.5 -1.05618 0.978181 0.000656708 0.20685
0.0124871 0.5 1.05618 0.978185 0.0006543 0.209004
1.05694 0.5 -0.0360765 0.863672 0.0750745 0.190222
1.05694 0.5 0.0360765 0.863081 0.0754329 0.204405
0.411736 0.5 0.975 0.97526 0.0171866 0.23886
0.411736 0.5 -0.975 0.97541 0.0166912 0.177466
0.872064 0.5 -0.6 0.935015 0.0458387 0.138593
0.872064 0.5 0.6 0.930977 0.0487555 0.270803
1.02709 0.5 -0.257758 0.882049 0.0683583 0.153297
1.02709 0.5 0.257758 0.878351 0.0706448 0.244816
0.151149 0.5 -1.05 0.978248 0.00677511 0.196506
0.151149 0.5 1.05 0.978281 0.0068113 0.219637
1.05694 0.5 -0.108229 0.86577 0.0742977 0.176309
1.05694 0.5 0.108229 0.863246 0.0757026 0.218948
1.04168 0.5 -0.218749 0.875773 0.0707424 0.15798
1.04168 0.5 0.218749 0.872453 0.0727727 0.238893
0.905821 0.5 -0.5625 0.928117 0.0493343 0.136103
0.905821 0.5 0.5625 0.923656 0.0524385 0.271829
1.00005 0.5 -0.374654 0.897545 0.0624267 0.140712
1.00005 0.5 0.374654 0.892783 0.0653955 0.260558
0.350249 0.5 -1.0125 0.976866 0.0142335 0.182201
0.350249 0.5 1.0125 0.976854 0.0145449 0.234179
1.05694 0.5 -0.180382 0.869408 0.0731179 0.162962
1.05694 0.5 0.180382 0.866486 0.074878 0.232551
1.07319 0.5 0.0709442 0.858798 0.0773573 0.214426
0.939201 0.5 0.525 0.915593 0.0563463 0.27231
0.939201 0.5 -0.525 0.920522 0.0530608 0.133971
1.02709 0.5 -0.331404 0.888007 0.0665043 0.142375
1.02709 0.5 0.331404 0.883282 0.0693726 0.256852
1.08112 0.5 -3.98986e-18 0.856136 0.0780967 0.196599
1.04168 0.5 -0.291665 0.881283 0.0690315 0.146268
1.04168 0.5 0.291665 0.87687 0.0716825 0.251611
1.08112 0.5 -0.0709442 0.857543 0.0775136 0.182068
0.96969 0.5 -0.4875 0.91245 0.0568506 0.132267
0.96969 0.5 0.4875 0.907143 0.0602739 0.272239
1.05694 0.5 -0.252535 0.87442 0.071559 0.150469
1.05694 0.5 0.252535 0.870336 0.0739796 0.245939
0.288069 0.5 -1.05 0.977668 0.0117058 0.186799
0.288069 0.5 1.05 0.977683 0.0119057 0.229542
0.0757758 0.5 -1.0875 0.978329 0.00396757 0.201488
0.0757758 0.5 1.0875 0.978349 0.00395319 0.214518
1.08112 0.5 -0.141888 0.860528 0.0765144 0.167954
1.08145 0.5 0.140165 0.85837 0.0778711 0.22625
0.715434 0.5 -0.825 0.960814 0.0312705 0.150196
0.715434 0.5 0.825 0.958722 0.0332623 0.26439
0.756814 0.5 -0.7875 0.956627 0.034158 0.146088
0.756814 0.5 0.7875 0.954047 0.0364312 0.267767
0.67013 0.5 -0.8625 0.964652 0.0284294 0.154536
0.67013 0.5 0.8625 0.96307 0.0301165 0.260672
0.797732 0.5 0.75 0.948611 0.0398289 0.270854
0.797732 0.5 -0.75 0.951774 0.0372525 0.142083
0.624316 0.5 -0.9 0.967837 0.0257806 0.158857
0.624316 0.5 0.9 0.96664 0.0272036 0.25681
1.00005 0.5 -0.449585 0.904428 0.0602102 0.132107
1.00005 0.5 0.449585 0.898875 0.0636507 0.270565
0.835107 0.5 -0.7125 0.946521 0.0404034 0.138324
0.835107 0.5 0.7125 0.942802 0.0432524 0.273574
0.574156 0.5 -0.9375 0.970723 0.0231656 0.163408
0.574156 0.5 0.9375 0.969923 0.0243052 0.252621
1.10076 0.5 0.034981 0.849824 0.0806024 0.203539
1.10076 0.5 -0.034981 0.85049 0.0802211 0.188491
1.08112 0.5 -0.212833 0.865027 0.0751183 0.154564
1.08112 0.5 0.212833 0.861294 0.0772886 0.239991
0.872064 0.5 -0.675 0.940599 0.0437258 0.134841
0.872064 0.5 0.675 0.936301 0.0468449 0.275825
1.04168 0.5 -0.364581 0.887908 0.0669951 0.135715
1.04168 0.5 0.364581 0.882465 0.0702219 0.263426
1.02709 0.5 0.405049 0.889289 0.0677493 0.267895
1.02709 0.5 -0.405049 0.894942 0.0643491 0.132689