# kMean  POINT_DATA 63140
# x  y  z  kMean
0 0.1 0 0.00375
0 0.1 -0.0179898 0.00375
0 0.1 0.0179898 0.00375
0.0363518 0.1 -0.0179898 0.00374675
0.0363518 0.1 0.0179898 0.00374701
0 0.1 -0.0570102 0.00375
0 0.1 0.0570102 0.00375
0.0363518 0.1 0.0570102 0.00374701
0.0363518 0.1 -0.0570102 0.00374675
0 0.1 0.075 0.00375
0 0.1 -0.075 0.00375
0.075776 0.1 -0.0375 0.00374294
0.075776 0.1 0.0375 0.00374348
0 0.1 0.0929898 0.00375
0 0.1 -0.0929898 0.00375
0.0363518 0.1 0.0929898 0.00374736
0.0363518 0.1 -0.0929898 0.00374658
0 0.1 0.13201 0.00375
0 0.1 -0.13201 0.00375
0.075776 0.1 0.1125 0.00374419
0.075776 0.1 -0.1125 0.00374261
0.0363518 0.1 0.13201 0.00374736
0.0363518 0.1 -0.13201 0.00374658
0 0.1 0.15 0.00375
0 0.1 -0.15 0.00375
0.150379 0.1 -8.67362e-19 0.00373435
0.150379 0.1 0.0710023 0.00373528
0 0.1 0.16799 0.00375
0 0.1 -0.16799 0.00375
0.150379 0.1 -0.075 0.00373392
0.0363518 0.1 0.16799 0.00374778
0.0363518 0.1 -0.16799 0.00374659
0.075776 0.1 0.1875 0.00374505
0.075776 0.1 -0.1875 0.00374263
0 0.1 0.20701 0.00375
0 0.1 -0.20701 0.00375
0.0363518 0.1 0.20701 0.00374778
0.0363518 0.1 -0.20701 0.00374659
0.150379 0.1 -0.15 0.00373399
0.150379 0.1 0.15 0.00373651
0.219992 0.1 -0.0375 0.00372553
0.219992 0.1 0.0375 0.00372624
0 0.1 0.225 0.00375
0 0.1 -0.225 0.00375
0 0.1 0.24299 0.00375
0 0.1 -0.24299 0.00375
0.0363518 0.1 0.24299 0.00374826
0.0363518 0.1 -0.24299 0.00374675
0.219992 0.1 0.1125 0.00372776
0.219993 0.1 -0.1125 0.0037254
0.150379 0.1 -0.225 0.00373467
0.150379 0.1 0.225 0.00373797
0.075776 0.1 -0.2625 0.00374297
0.075776 0.1 0.2625 0.00374603
0 0.1 -0.28201 0.00375
0 0.1 0.28201 0.00375
0.0363518 0.1 -0.28201 0.00374675
0.0363518 0.1 0.28201 0.00374826
0.287374 0.1 0 0.00371751
0.219992 0.1 -0.1875 0.00372611
0.219993 0.1 0.1875 0.00372977
0.287374 0.1 0.0710023 0.00371834
0.287374 0.1 -0.075 0.00371746
0 0.1 0.3 0.00375
0 0.1 -0.3 0.00375
0 0.1 0.31799 0.00375
0 0.1 -0.31799 0.00375
0.0363518 0.1 0.31799 0.00374875
0.0363518 0.1 -0.31799 0.00374705
0.287374 0.1 0.15 0.00371974
0.287374 0.1 -0.15 0.00371815
0.150379 0.1 -0.3 0.00373588
0.150379 0.1 0.3 0.00373947
0.219993 0.1 -0.2625 0.0037277
0.219993 0.1 0.2625 0.00373171
0.075776 0.1 0.3375 0.00374704
0.075776 0.1 -0.3375 0.00374356
0.350249 0.1 0.0375 0.0037095
0.350249 0.1 -0.0375 0.00370945
0 0.1 -0.35701 0.00375
0 0.1 0.35701 0.00375
0.0363518 0.1 0.35701 0.00374875
0.0363518 0.1 -0.35701 0.00374705
0.287374 0.1 0.225 0.00372162
0.287374 0.1 -0.225 0.00371961
0.350249 0.1 0.1125 0.00371034
0.350249 0.1 -0.1125 0.00371013
0 0.1 0.375 0.00375
0 0.1 -0.375 0.00375
0 0.1 -0.39299 0.00375
0 0.1 0.39299 0.00375
0.0363518 0.1 -0.39299 0.00374739
0.0363518 0.1 0.39299 0.00374921
0.350249 0.1 -0.1875 0.0037116
0.350249 0.1 0.1875 0.00371185
0.219992 0.1 0.3375 0.00373374
0.219993 0.1 -0.3375 0.00372996
0.150379 0.1 0.375 0.00374097
0.150379 0.1 -0.375 0.00373717
0.411108 0.1 0 0.00370258
0.287374 0.1 0.3 0.00372372
0.287374 0.1 -0.3 0.0037216
0.411108 0.1 0.0710023 0.00370273
0.411108 0.1 -0.075 0.00370325
0.075776 0.1 0.4125 0.00374798
0.075776 0.1 -0.4125 0.00374426
0 0.1 0.43201 0.00375
0 0.1 -0.43201 0.00375
0.0363518 0.1 0.43201 0.00374921
0.0363518 0.1 -0.43201 0.00374739
0.411108 0.1 -0.15 0.00370457
0.411108 0.1 0.15 0.00370337
0.350249 0.1 -0.2625 0.00371362
0.350249 0.1 0.2625 0.0037139
0 0.1 0.45 0.00375
0 0.1 -0.45 0.00375
0.219992 0.1 -0.4125 0.00373151
0.219992 0.1 0.4125 0.00373571
0 0.1 0.46799 0.00375
0 0.1 -0.46799 0.00375
0.411108 0.1 0.225 0.00370478
0.411108 0.1 -0.225 0.00370637
0.467897 0.1 -0.0375 0.00369629
0.467897 0.1 0.0375 0.00369559
0.0363518 0.1 0.46799 0.00374957
0.0363518 0.1 -0.46799 0.00374771
0.287374 0.1 0.375 0.00372591
0.287374 0.1 -0.375 0.0037235
0.150379 0.1 0.45 0.00374229
0.150379 0.1 -0.45 0.00373817
0.467897 0.1 0.1125 0.00369557
0.467897 0.1 -0.1125 0.00369761
0.350249 0.1 0.3375 0.00371625
0.350249 0.1 -0.3375 0.00371574
0.075776 0.1 -0.4875 0.00374491
0.075776 0.1 0.4875 0.00374872
0.467897 0.1 0.1875 0.00369628
0.467897 0.1 -0.1875 0.0036994
0 0.1 0.50701 0.00375
0 0.1 -0.50701 0.00375
0.0363518 0.1 -0.50701 0.00374771
0.0363518 0.1 0.50701 0.00374957
0.411108 0.1 0.3 0.0037067
0.411108 0.1 -0.3 0.0037083
0.522865 0.1 -9.1073e-18 0.00369139
0 0.1 0.525 0.00375
0 0.1 -0.525 0.00375
0.522865 0.1 0.0710023 0.00369082
0.522865 0.1 -0.075 0.00369261
0.287374 0.1 0.45 0.00372797
0.287374 0.1 -0.45 0.00372483
0.219992 0.1 -0.4875 0.00373257
0.219992 0.1 0.4875 0.00373728
0.467897 0.1 0.2625 0.00369765
0.467897 0.1 -0.2625 0.00370131
0.350249 0.1 -0.4125 0.00371737
0.350249 0.1 0.4125 0.00371866
0 0.1 0.54299 0.00375
0 0.1 -0.54299 0.00375
0.522865 0.1 -0.15 0.00369419
0.522865 0.1 0.15 0.00369058
0.0363518 0.1 0.54299 0.00374986
0.0363518 0.1 -0.54299 0.003748
0.150379 0.1 -0.525 0.00373899
0.150379 0.1 0.525 0.00374328
0.411108 0.1 0.375 0.00370895
0.411108 0.1 -0.375 0.00371
0.075776 0.1 0.5625 0.00374932
0.075776 0.1 -0.5625 0.0037455
0.522865 0.1 0.225 0.00369113
0.522865 0.1 -0.225 0.00369587
0.574156 0.1 0.0375 0.00368631
0.574157 0.1 -0.0375 0.00368758
0.467897 0.1 -0.3375 0.003703
0.467897 0.1 0.3375 0.0036996
0 0.1 0.58201 0.00375
0 0.1 -0.58201 0.00375
0.0363518 0.1 0.58201 0.00374986
0.0363518 0.1 -0.58201 0.003748
0.574156 0.1 0.1125 0.0036855
0.574156 0.1 -0.1125 0.00368916
0.287374 0.1 0.525 0.00372962
0.287374 0.1 -0.525 0.00372582
0 0.1 0.6 0.00375
0 0.1 -0.6 0.00375
0.350249 0.1 0.4875 0.0037209
0.350249 0.1 -0.4875 0.00371846
0.522865 0.1 -0.3 0.00369738
0.522865 0.1 0.3 0.0036923
0.219992 0.1 0.5625 0.0037383
0.219992 0.1 -0.5625 0.00373353
0.574156 0.1 0.1875 0.00368526
0.574157 0.1 -0.1875 0.00369079
0.411108 0.1 0.45 0.00371128
0.411108 0.1 -0.45 0.00371123
0 0.1 0.61799 0.00375
0 0.1 -0.61799 0.00375
0.150379 0.1 0.6 0.00374402
0.150379 0.1 -0.6 0.00373967
0.0363518 0.1 -0.61799 0.00374824
0.0363518 0.1 0.61799 0.00375012
0.623413 0.1 0 0.00368469
0.467897 0.1 0.4125 0.0037019
0.467897 0.1 -0.4125 0.00370435
0.623803 0.1 0.0710023 0.00368358
0.623803 0.1 -0.075 0.00368614
0.574156 0.1 0.2625 0.00368564
0.574157 0.1 -0.2625 0.00369221
0.623803 0.1 -0.15 0.00368759
0.623803 0.1 0.15 0.00368254
0.075776 0.1 0.6375 0.00374985
0.075776 0.1 -0.6375 0.00374601
0.522865 0.1 -0.375 0.00369857
0.522865 0.1 0.375 0.003694
0 0.1 0.65701 0.00375
0 0.1 -0.65701 0.00375
0.0363518 0.1 0.65701 0.00375012
0.0363518 0.1 -0.65701 0.00374824
0.350249 0.1 0.5625 0.00372265
0.350249 0.1 -0.5625 0.00371929
0.623803 0.1 0.225 0.00368213
0.623803 0.1 -0.225 0.00368882
0.287374 0.1 0.6 0.00373084
0.287374 0.1 -0.6 0.00372657
0.574156 0.1 0.3375 0.00368666
0.574157 0.1 -0.3375 0.00369324
0.411108 0.1 0.525 0.0037134
0.411108 0.1 -0.525 0.00371204
0.67013 0.1 0.0375 0.00368166
0.67013 0.1 -0.0375 0.00368318
0.219993 0.1 0.6375 0.00373908
0.219993 0.1 -0.6375 0.0037342
0 0.1 0.675 0.00375
0 0.1 -0.675 0.00375
0.467897 0.1 0.4875 0.00370427
0.467897 0.1 -0.4875 0.00370519
0.67013 0.1 0.1125 0.00368026
0.67013 0.1 -0.1125 0.00368463
0.522865 0.1 -0.45 0.00369935
0.522865 0.1 0.45 0.00369603
0.150379 0.1 0.675 0.00374464
0.150379 0.1 -0.675 0.00374018
0.623803 0.1 0.3 0.00368229
0.623803 0.1 -0.3 0.00368966
0 0.1 -0.69299 0.00375
0 0.1 0.69299 0.00375
0.0363518 0.1 0.69299 0.00375035
0.0363518 0.1 -0.69299 0.00374847
0.67013 0.1 0.1875 0.00367916
0.67013 0.1 -0.1875 0.00368579
0.574156 0.1 0.4125 0.00368822
0.574157 0.1 -0.4125 0.00369396
0.714619 0.1 4.77049e-18 0.00368215
0.075776 0.1 0.7125 0.00375033
0.075776 0.1 -0.7125 0.00374646
0.714971 0.1 0.0710023 0.00368078
0.714971 0.1 -0.075 0.0036835
0.67013 0.1 0.2625 0.00367853
0.67013 0.1 -0.2625 0.00368651
0.411108 0.1 0.6 0.00371514
0.411108 0.1 -0.6 0.00371258
0.350249 0.1 0.6375 0.00372397
0.350249 0.1 -0.6375 0.00371987
0.623803 0.1 0.375 0.00368302
0.623803 0.1 -0.375 0.0036901
0.714971 0.1 0.15 0.00367915
0.714971 0.1 -0.15 0.00368451
0.467897 0.1 0.5625 0.00370639
0.467897 0.1 -0.5625 0.00370568
0 0.1 0.73201 0.00375
0 0.1 -0.73201 0.00375
0.0363518 0.1 0.73201 0.00375035
0.0363518 0.1 -0.73201 0.00374847
0.287374 0.1 0.675 0.00373181
0.287374 0.1 -0.675 0.00372708
0.522865 0.1 0.525 0.00369812
0.522865 0.1 -0.525 0.00369971
0.219992 0.1 0.7125 0.00373979
0.219992 0.1 -0.7125 0.00373459
0.714971 0.1 -0.225 0.00368505
0.714971 0.1 0.225 0.00367788
0 0.1 0.75 0.00375
0 0.1 -0.75 0.00375
0.67013 0.1 -0.3375 0.00368674
0.67013 0.1 0.3375 0.00367842
0.574157 0.1 0.4875 0.00369014
0.574157 0.1 -0.4875 0.0036942
0.756813 0.1 0.0375 0.00368105
0.756814 0.1 -0.0375 0.00368248
0.150379 0.1 -0.75 0.00374065
0.150379 0.1 0.75 0.00374521
0.756813 0.1 0.1125 0.00367936
0.756814 0.1 -0.1125 0.0036835
0 0.1 0.76799 0.00375
0 0.1 -0.76799 0.00375
0.0363518 0.1 0.76799 0.00375054
0.0363518 0.1 -0.76799 0.00374868
0.623803 0.1 0.45 0.00368425
0.623803 0.1 -0.45 0.00369011
0.714971 0.1 0.3 0.003677
0.714971 0.1 -0.3 0.00368507
0.756813 0.1 0.1875 0.00367762
0.756813 0.1 -0.1875 0.00368394
0.67013 0.1 -0.4125 0.00368654
0.67013 0.1 0.4125 0.00367891
0.411108 0.1 0.675 0.00371649
0.411108 0.1 -0.675 0.00371295
0.467897 0.1 0.6375 0.00370811
0.467897 0.1 -0.6375 0.00370598
0.075776 0.1 -0.7875 0.0037469
0.075776 0.1 0.7875 0.00375072
0.350249 0.1 -0.7125 0.00372027
0.350249 0.1 0.7125 0.00372501
0.791054 0.1 0.0690034 0.0036814
0.522865 0.1 0.6 0.0037
0.522865 0.1 -0.6 0.00369979
0.797314 0.1 -3.03577e-18 0.00368318
0.797314 0.1 -0.075 0.0036842
0.756814 0.1 0.2625 0.00367606
0.756814 0.1 -0.2625 0.0036838
0.287374 0.1 -0.75 0.00372755
0.287374 0.1 0.75 0.00373264
0.574156 0.1 0.5625 0.00369211
0.574156 0.1 -0.5625 0.00369409
0 0.1 0.80701 0.00375
0 0.1 -0.80701 0.00375
0.714971 0.1 -0.375 0.00368457
0.714971 0.1 0.375 0.00367659
0.0363518 0.1 0.80701 0.00375054
0.0363518 0.1 -0.80701 0.00374868
0.797314 0.1 0.15 0.00367993
0.797314 0.1 -0.15 0.00368456
0.623803 0.1 0.525 0.00368577
0.623803 0.1 -0.525 0.00368972
0.219992 0.1 -0.7875 0.0037352
0.219992 0.1 0.7875 0.00374047
0 0.1 0.825 0.00375
0 0.1 -0.825 0.00375
0.797314 0.1 0.225 0.003678
0.797314 0.1 -0.225 0.00368427
0.756813 0.1 -0.3375 0.0036831
0.756814 0.1 0.3375 0.00367483
0.67013 0.1 0.4875 0.00367989
0.67013 0.1 -0.4875 0.00368586
0.835106 0.1 0.0375 0.00368393
0.835106 0.1 -0.0375 0.00368503
0.150379 0.1 -0.825 0.00374117
0.150379 0.1 0.825 0.00374571
0.835106 0.1 0.1125 0.00368223
0.835106 0.1 -0.1125 0.00368541
0 0.1 -0.84299 0.00375
0 0.1 0.84299 0.00375
0.0363518 0.1 -0.84299 0.00374889
0.0363518 0.1 0.84299 0.00375068
0.714971 0.1 -0.45 0.00368359
0.714971 0.1 0.45 0.00367671
0.797314 0.1 0.3 0.00367616
0.797314 0.1 -0.3 0.00368334
0.467897 0.1 0.7125 0.00370945
0.467897 0.1 -0.7125 0.00370619
0.522865 0.1 0.675 0.0037015
0.522865 0.1 -0.675 0.00369974
0.411108 0.1 -0.75 0.00371327
0.411108 0.1 0.75 0.00371758
0.835106 0.1 -0.1875 0.00368504
0.835107 0.1 0.1875 0.00368011
0.574156 0.1 0.6375 0.0036938
0.574156 0.1 -0.6375 0.00369377
0.350249 0.1 -0.7875 0.00372074
0.350249 0.1 0.7875 0.0037259
0.756814 0.1 0.4125 0.00367408
0.756814 0.1 -0.4125 0.00368182
0.623803 0.1 0.6 0.0036873
0.623803 0.1 -0.6 0.00368908
0.075776 0.1 0.8625 0.00375103
0.075776 0.1 -0.8625 0.00374733
0.871687 0.1 -0.00399773 0.00368736
0.287374 0.1 -0.825 0.00372808
0.287374 0.1 0.825 0.00373339
0.871687 0.1 0.075 0.00368614
0.871687 0.1 -0.075 0.00368776
0.67013 0.1 0.5625 0.00368113
0.67013 0.1 -0.5625 0.00368488
0.835106 0.1 0.2625 0.00367782
0.835106 0.1 -0.2625 0.00368396
0.797314 0.1 0.375 0.0036746
0.797314 0.1 -0.375 0.00368178
0 0.1 -0.88201 0.00375
0 0.1 0.88201 0.00375
0.0363518 0.1 0.88201 0.00375068
0.0363518 0.1 -0.88201 0.00374889
0.871687 0.1 0.15 0.00368426
0.871687 0.1 -0.15 0.00368733
0.714971 0.1 0.525 0.00367725
0.714971 0.1 -0.525 0.00368222
0.219992 0.1 0.8625 0.00374107
0.219993 0.1 -0.8625 0.00373578
0 0.1 0.9 0.00375
0 0.1 -0.9 0.00375
0.756813 0.1 0.4875 0.00367388
0.756814 0.1 -0.4875 0.00368009
0.871687 0.1 0.225 0.0036819
0.871687 0.1 -0.225 0.0036861
0.835106 0.1 0.3375 0.00367558
0.835106 0.1 -0.3375 0.0036822
0.90582 0.1 -0.0375 0.00369025
0.905821 0.1 0.0375 0.00368968
0.150379 0.1 0.9 0.00374611
0.150379 0.1 -0.9 0.00374165
0.90582 0.1 0.1125 0.00368821
0.90582 0.1 -0.1125 0.00368985
0.522865 0.1 -0.75 0.00369965
0.522865 0.1 0.75 0.00370267
0.574156 0.1 0.7125 0.00369508
0.574156 0.1 -0.7125 0.00369337
0.797314 0.1 0.45 0.00367346
0.797314 0.1 -0.45 0.00367967
0.467897 0.1 -0.7875 0.00370642
0.467897 0.1 0.7875 0.00371052
0 0.1 0.91799 0.00375
0 0.1 -0.91799 0.00375
0.0363518 0.1 0.91799 0.00375079
0.0363518 0.1 -0.91799 0.00374908
0.623803 0.1 0.675 0.0036886
0.623803 0.1 -0.675 0.0036883
0.411108 0.1 -0.825 0.00371362
0.411108 0.1 0.825 0.0037185
0.871687 0.1 0.3 0.0036793
0.871687 0.1 -0.3 0.00368411
0.67013 0.1 0.6375 0.00368238
0.67013 0.1 -0.6375 0.00368375
0.90582 0.1 0.1875 0.00368596
0.905821 0.1 -0.1875 0.00368853
0.350249 0.1 0.8625 0.0037267
0.350249 0.1 -0.8625 0.00372123
0.835106 0.1 0.4125 0.00367358
0.835106 0.1 -0.4125 0.00367973
0.714971 0.1 0.6 0.00367801
0.714971 0.1 -0.6 0.00368061
0.93886 0.1 -0.00399773 0.00369404
0.075776 0.1 0.9375 0.00375125
0.075776 0.1 -0.9375 0.00374773
0.93886 0.1 0.075 0.00369334
0.93886 0.1 -0.075 0.00369385
0.756813 0.1 0.5625 0.00367408
0.756814 0.1 -0.5625 0.00367803
0.90582 0.1 0.2625 0.00368319
0.905821 0.1 -0.2625 0.00368641
0.287374 0.1 0.9 0.00373402
0.287374 0.1 -0.9 0.00372859
0.871687 0.1 0.375 0.00367669
0.871687 0.1 -0.375 0.00368138
0.93886 0.1 0.15 0.00369159
0.93886 0.1 -0.15 0.00369257
0.797314 0.1 0.525 0.0036728
0.797314 0.1 -0.525 0.00367718
0 0.1 0.95701 0.00375
0 0.1 -0.95701 0.00375
0.0363518 0.1 0.95701 0.00375079
0.0363518 0.1 -0.95701 0.00374908
0.219992 0.1 0.9375 0.00374153
0.219992 0.1 -0.9375 0.0037363
0.93886 0.1 0.225 0.00368903
0.93886 0.1 -0.225 0.00369039
0.90582 0.1 0.3375 0.00368011
0.905821 0.1 -0.3375 0.00368348
0.835107 0.1 0.4875 0.00367204
0.835107 0.1 -0.4875 0.00367685
0.969689 0.1 0.0375 0.00369798
0.969689 0.1 -0.0375 0.00369795
0.574156 0.1 0.7875 0.00369604
0.574156 0.1 -0.7875 0.00369301
0 0.1 0.975 0.00375
0 0.1 -0.975 0.00375
0.623803 0.1 0.75 0.00368955
0.623803 0.1 -0.75 0.00368748
0.96969 0.1 0.1125 0.00369686
0.96969 0.1 -0.1125 0.00369676
0.522865 0.1 -0.825 0.00369956
0.522865 0.1 0.825 0.00370358
0.67013 0.1 0.7125 0.00368336
0.67013 0.1 -0.7125 0.00368253
0.871687 0.1 0.45 0.00367427
0.871687 0.1 -0.45 0.00367804
0.467897 0.1 0.8625 0.00371144
0.467897 0.1 -0.8625 0.00370661
0.714971 0.1 -0.675 0.00367889
0.714971 0.1 0.675 0.00367872
0.93886 0.1 0.3 0.0036859
0.93886 0.1 -0.3 0.00368733
0.150379 0.1 0.975 0.00374639
0.150379 0.1 -0.975 0.00374208
0.969689 0.1 -0.1875 0.00369456
0.969689 0.1 0.1875 0.00369467
0.411108 0.1 0.9 0.00371929
0.411108 0.1 -0.9 0.00371391
0.756813 0.1 0.6375 0.00367443
0.756813 0.1 -0.6375 0.00367579
0.990306 0.1 3.46945e-18 0.00369822
0 0.1 0.99299 0.00375
0 0.1 -0.99299 0.00375
0.990306 0.1 0.075 0.00369781
0.990306 0.1 -0.075 0.00369747
0.0363518 0.1 0.99299 0.00375086
0.0363518 0.1 -0.99299 0.00374925
0.905821 0.1 0.4125 0.00367699
0.905821 0.1 -0.4125 0.00367974
0.797314 0.1 0.6 0.00367247
0.797314 0.1 -0.6 0.00367443
0.350249 0.1 0.9375 0.00372738
0.350249 0.1 -0.9375 0.00372166
0.990306 0.1 0.15 0.00369622
0.990306 0.1 -0.15 0.00369558
0.969689 0.1 -0.2625 0.0036915
0.969689 0.1 0.2625 0.00369165
0.835106 0.1 0.5625 0.00367098
0.835106 0.1 -0.5625 0.00367361
0.93886 0.1 0.375 0.00368244
0.93886 0.1 -0.375 0.00368334
0.075776 0.1 1.0125 0.00375139
0.075776 0.1 -1.0125 0.00374809
0.990306 0.1 0.225 0.0036936
0.990306 0.1 -0.225 0.00369272
0.287374 0.1 0.975 0.00373452
0.287374 0.1 -0.975 0.00372902
0.871687 0.1 0.525 0.00367226
0.871687 0.1 -0.525 0.00367429
1.02149 0.1 -0.0369628 0.00370176
1.02149 0.1 0.0369628 0.00370336
0.969689 0.1 -0.3375 0.00368741
0.96969 0.1 0.3375 0.00368801
1.02149 0.1 0.110888 0.0037026
1.02149 0.1 -0.110888 0.00370112
0.90582 0.1 0.4875 0.00367404
0.905821 0.1 -0.4875 0.00367551
0 0.1 1.03201 0.00375
0 0.1 -1.03201 0.00375
0.0363518 0.1 1.03201 0.00375086
0.0363518 0.1 -1.03201 0.00374925
0.67013 0.1 0.7875 0.00368397
0.67013 0.1 -0.7875 0.00368126
0.623803 0.1 -0.825 0.00368667
0.623803 0.1 0.825 0.0036902
0.990306 0.1 0.3 0.00369018
0.990306 0.1 -0.3 0.00368886
0.219992 0.1 -1.0125 0.00373674
0.219992 0.1 1.0125 0.00374183
0.574156 0.1 -0.8625 0.00369263
0.574157 0.1 0.8625 0.00369677
0.714971 0.1 0.75 0.00367921
0.714971 0.1 -0.75 0.00367712
1.02149 0.1 0.184814 0.0037006
1.02149 0.1 -0.184814 0.0036983
0.756814 0.1 0.7125 0.00367473
0.756813 0.1 -0.7125 0.00367354
0.522865 0.1 0.9 0.00370433
0.522865 0.1 -0.9 0.00369942
0.93886 0.1 0.45 0.00367891
0.93886 0.1 -0.45 0.0036786
1.04168 0.1 0 0.00370732
1.04168 0.1 0.0729162 0.00370737
1.04168 0.1 -0.0729162 0.00370598
0.797314 0.1 0.675 0.00367225
0.797314 0.1 -0.675 0.00367155
0.467897 0.1 0.9375 0.00371222
0.467897 0.1 -0.9375 0.0037067
0 0.1 1.05 0.00375
0 0.1 -1.05 0.00375
0.835106 0.1 0.6375 0.0036702
0.835106 0.1 -0.6375 0.00367015
1.04168 0.1 0.145832 0.00370615
1.04168 0.1 -0.145832 0.00370345
1.02149 0.1 0.25874 0.00369757
1.02149 0.1 -0.25874 0.00369447
0.969689 0.1 0.4125 0.00368402
0.969689 0.1 -0.4125 0.00368225
0.411108 0.1 0.975 0.00371995
0.411108 0.1 -0.975 0.00371412
0.871687 0.1 0.6 0.00367064
0.871687 0.1 -0.6 0.00367025
1.0579 0.1 -0.0360525 0.00370965
1.0579 0.1 0.0360525 0.003711
0.990306 0.1 0.375 0.00368619
0.990306 0.1 -0.375 0.0036839
0.150379 0.1 1.05 0.00374656
0.150379 0.1 -1.05 0.00374245
1.0579 0.1 -0.108157 0.00370799
1.0579 0.1 0.108157 0.00371057
1.04168 0.1 0.218749 0.00370371
1.04168 0.1 -0.218749 0.00369983
0.90582 0.1 0.5625 0.00367157
0.905821 0.1 -0.5625 0.00367092
0 0.1 -1.06799 0.00375
0 0.1 1.06799 0.00375
0.0363518 0.1 -1.06799 0.0037494
0.0363518 0.1 1.06799 0.00375089
0.350249 0.1 1.0125 0.00372792
0.350249 0.1 -1.0125 0.00372201
1.0579 0.1 -0.180262 0.00370472
1.0579 0.1 0.180262 0.00370883
1.02149 0.1 0.332665 0.00369367
1.02149 0.1 -0.332665 0.00368946
0.93886 0.1 0.525 0.0036756
0.93886 0.1 -0.525 0.00367345
1.08012 0.1 1.70581e-17 0.00371603
1.04168 0.1 0.291665 0.00370025
1.04168 0.1 -0.291665 0.00369506
1.08012 0.1 0.0709941 0.00371645
1.08012 0.1 -0.074001 0.00371417
0.969689 0.1 -0.4875 0.00367645
0.96969 0.1 0.4875 0.00367998
1.0579 0.1 0.252367 0.00370592
1.0579 0.1 -0.252367 0.00370029
0.990306 0.1 -0.45 0.00367809
0.990306 0.1 0.45 0.00368191
0.287374 0.1 -1.05 0.00372938
0.287374 0.1 1.05 0.00373486
1.08012 0.1 0.141988 0.00371554
1.08012 0.1 -0.141988 0.00371131
0.075776 0.1 1.0875 0.00375145
0.075776 0.1 -1.0875 0.00374839
0.714971 0.1 0.825 0.00367938
0.714971 0.1 -0.825 0.00367537
0.756813 0.1 0.7875 0.0036748
0.756813 0.1 -0.7875 0.00367125
0.67013 0.1 0.8625 0.00368427
0.67013 0.1 -0.8625 0.00368006
0.797314 0.1 -0.75 0.00366868
0.797314 0.1 0.75 0.00367197
0.623803 0.1 0.9 0.00369064
0.623803 0.1 -0.9 0.00368586
0.835106 0.1 0.7125 0.00366949
0.835107 0.1 -0.7125 0.00366665
0.574156 0.1 0.9375 0.00369736
0.574156 0.1 -0.9375 0.00369221
1.02149 0.1 -0.406591 0.00368329
1.02149 0.1 0.406591 0.00368916
1.08012 0.1 -0.212982 0.00370712
1.08012 0.1 0.212982 0.00371335
1.10076 0.1 -0.0349809 0.00372045
1.10076 0.1 0.0349809 0.00372172
0.871687 0.1 0.675 0.00366925
0.871687 0.1 -0.675 0.00366608
1.04168 0.1 0.364581 0.00369596
1.04168 0.1 -0.364581 0.00368907
1.10076 0.1 0.104943 0.00372167
1.10076 0.1 -0.104943 0.00371783
0.522865 0.1 0.975 0.00370494
0.522865 0.1 -0.975 0.00369919
1.0579 0.1 0.324472 0.00370203
1.0579 0.1 -0.324472 0.00369461
0 0.1 -1.10701 0.00375
0 0.1 1.10701 0.00375
0.0363518 0.1 1.10701 0.00375089
0.0363518 0.1 -1.10701 0.0037494
0.90582 0.1 0.6375 0.00366945
0.905821 0.1 -0.6375 0.0036661
0.219992 0.1 1.0875 0.00374199
0.219992 0.1 -1.0875 0.00373711
0.93886 0.1 0.6 0.00367264
0.93886 0.1 -0.6 0.00366809
1.10076 0.1 0.174905 0.00372025
1.10076 0.1 -0.174905 0.00371399
0.467897 0.1 1.0125 0.00371282
0.467897 0.1 -1.0125 0.00370667
1.08012 0.1 0.283976 0.00371
1.08012 0.1 -0.283976 0.00370168
1.11928 0.1 -0.00290737 0.00372642
1.11711 0.1 -0.0710826 0.00372329
0.990306 0.1 0.525 0.00367767
0.990306 0.1 -0.525 0.00367195
0.969689 0.1 0.5625 0.00367625
0.96969 0.1 -0.5625 0.00367053
1.11928 0.1 0.0690357 0.00372721
0 0.1 1.125 0.00375
0 0.1 -1.125 0.00375
1.11807 0.1 -0.138193 0.00372019
0.411108 0.1 -1.05 0.00371424
0.411108 0.1 1.05 0.00372041
1.10076 0.1 -0.244866 0.00370882
1.10076 0.1 0.244866 0.00371754
1.11928 0.1 0.138072 0.00372664
1.02149 0.1 0.480517 0.0036843
1.02149 0.1 -0.480517 0.00367659
1.0579 0.1 -0.396577 0.00368779
1.0579 0.1 0.396577 0.00369733
1.04168 0.1 0.437497 0.00369107
1.04168 0.1 -0.437497 0.00368227
0.150379 0.1 1.125 0.00374661
0.150379 0.1 -1.125 0.00374276
1.08012 0.1 0.354971 0.00370568
1.08012 0.1 -0.354971 0.00369503
1.11807 0.1 -0.207288 0.00371543
1.11928 0.1 0.207107 0.00372471
0.350249 0.1 1.0875 0.00372827
0.350249 0.1 -1.0875 0.00372228
0 0.1 1.14299 0.00375
0 0.1 -1.14299 0.00375
0.0363518 0.1 1.14299 0.00375088
0.0363518 0.1 -1.14299 0.00374952
1.14316 0.1 -0.0339211 0.00373244
1.14316 0.1 0.0339211 0.00373444
1.10076 0.1 0.314829 0.00371371
1.10076 0.1 -0.314829 0.00370235
0.797314 0.1 0.825 0.00367148
0.797314 0.1 -0.825 0.00366585
0.756814 0.1 -0.8625 0.00366903
0.756814 0.1 0.8625 0.00367453
1.14316 0.1 -0.101763 0.00372955
1.14316 0.1 0.101763 0.00373481
0.835106 0.1 0.7875 0.00366873
0.835107 0.1 -0.7875 0.00366323
0.714971 0.1 0.9 0.00367929
0.714971 0.1 -0.9 0.00367368
0.871687 0.1 0.75 0.0036679
0.871687 0.1 -0.75 0.00366195
1.11807 0.1 -0.276385 0.00370936
0.67013 0.1 0.9375 0.00368443
0.67013 0.1 -0.9375 0.00367887
0.905821 0.1 0.7125 0.00366751
0.905821 0.1 -0.7125 0.00366124
1.11928 0.1 0.276143 0.00372154
1.14316 0.1 -0.169605 0.00372503
1.14316 0.1 0.169605 0.00373379
0.93886 0.1 0.675 0.00366992
0.93886 0.1 -0.675 0.00366261
1.15704 0.1 0 0.00373831
1.0579 0.1 0.468682 0.0036921
1.0579 0.1 -0.468682 0.00368056
0.623803 0.1 0.975 0.00369096
0.623803 0.1 -0.975 0.00368501
0.990306 0.1 0.6 0.00367365
0.990306 0.1 -0.6 0.00366565
1.15704 0.1 -0.0671479 0.0037357
1.15704 0.1 0.0671479 0.0037395
1.04168 0.1 0.510414 0.00368588
1.04168 0.1 -0.510414 0.00367525
0.969689 0.1 0.6375 0.00367275
0.96969 0.1 -0.6375 0.00366445
1.08012 0.1 0.425965 0.00370059
1.08012 0.1 -0.425965 0.00368763
0.287374 0.1 -1.125 0.00372966
0.287374 0.1 1.125 0.00373503
1.02149 0.1 0.554443 0.00367944
1.02149 0.1 -0.554443 0.00366987
0.574156 0.1 -1.0125 0.00369167
0.574156 0.1 1.0125 0.00369785
1.15704 0.1 -0.134296 0.00373165
1.15704 0.1 0.134296 0.00373929
0.075776 0.1 1.1625 0.00375144
0.075776 0.1 -1.1625 0.00374865
1.10076 0.1 0.384791 0.0037089
1.10076 0.1 -0.384791 0.0036948
1.14316 0.1 -0.237448 0.00371914
1.14316 0.1 0.237448 0.0037314
1.11807 0.1 -0.345481 0.00370213
1.11928 0.1 0.345179 0.00371726
0.522865 0.1 1.05 0.00370539
0.522865 0.1 -1.05 0.00369887
1.15704 0.1 -0.201444 0.00372622
1.15704 0.1 0.201444 0.00373769
1.1744 0.1 -0.0331401 0.00374221
1.1744 0.1 0.0331401 0.00374373
1.1744 0.1 -0.0994202 0.00373867
1.1744 0.1 0.0994202 0.00374488
0 0.1 1.18201 0.00375
0 0.1 -1.18201 0.00375
0.0363518 0.1 1.18201 0.00375088
0.0363518 0.1 -1.18201 0.00374952
0.219992 0.1 1.1625 0.003742
0.219993 0.1 -1.1625 0.0037374
1.14316 0.1 -0.30529 0.00371202
1.14316 0.1 0.30529 0.00372776
0.467897 0.1 1.0875 0.0037132
0.467897 0.1 -1.0875 0.00370657
1.1744 0.1 -0.1657 0.00373372
1.1744 0.1 0.1657 0.00374412
1.15704 0.1 -0.268592 0.00371949
1.15704 0.1 0.268592 0.00373474
1.0579 0.1 0.540787 0.00368659
1.0579 0.1 -0.540787 0.00367332
1.08012 0.1 0.496959 0.00369496
1.08012 0.1 -0.496959 0.00368007
1.10076 0.1 0.454752 0.00370334
1.10076 0.1 -0.454752 0.00368694
1.11807 0.1 -0.414577 0.00369421
1.11928 0.1 0.414214 0.00371203
1.04168 0.1 0.58333 0.00368065
1.04168 0.1 -0.58333 0.00366799
1.19529 0.1 0.0650961 0.00375423
1.1744 0.1 0.231981 0.00374196
1.1744 0.1 -0.231981 0.00372738
0.411108 0.1 1.125 0.00372067
0.411108 0.1 -1.125 0.00371427
1.19808 0.1 3.5851e-17 0.00375317
0.990306 0.1 0.675 0.00366984
0.990306 0.1 -0.675 0.00365923
1.02149 0.1 0.628368 0.00367472
1.02149 0.1 -0.628368 0.00366283
1.19808 0.1 -0.0650961 0.00374996
0 0.1 1.2 0.00375
0 0.1 -1.2 0.00375
0.871687 0.1 -0.825 0.00365794
0.871687 0.1 0.825 0.00366645
0.905821 0.1 -0.7875 0.00365654
0.90582 0.1 0.7875 0.00366555
0.835106 0.1 0.8625 0.00366775
0.835106 0.1 -0.8625 0.00365987
0.93886 0.1 0.75 0.00366735
0.93886 0.1 -0.75 0.00365721
0.797314 0.1 0.9 0.00367072
0.797314 0.1 -0.9 0.00366313
1.14316 0.1 -0.373132 0.00370394
1.14316 0.1 0.373132 0.00372301
0.969689 0.1 0.7125 0.00366946
0.969689 0.1 -0.7125 0.00365834
1.15704 0.1 -0.33574 0.0037117
1.15704 0.1 0.33574 0.00373056
0.756813 0.1 0.9375 0.00367404
0.756814 0.1 -0.9375 0.00366695
1.19808 0.1 0.130192 0.00375503
1.19808 0.1 -0.130192 0.00374523
0.714971 0.1 0.975 0.00367908
0.714971 0.1 -0.975 0.00367204
0.150379 0.1 1.2 0.00374656
0.150379 0.1 -1.2 0.003743
1.20938 0.1 -0.0322656 0.0037554
1.20938 0.1 0.0322656 0.00375796
1.19808 0.1 0.178844 0.00375395
1.1744 0.1 0.298261 0.00373849
1.1744 0.1 -0.298261 0.0037199
1.20938 0.1 -0.0967968 0.00375126
1.20938 0.1 0.0967968 0.00375902
1.19808 0.1 -0.195288 0.00373912
0.350249 0.1 1.1625 0.00372842
0.350249 0.1 -1.1625 0.00372247
0.67013 0.1 1.0125 0.0036845
0.67013 0.1 -1.0125 0.00367764
0 0.1 1.21799 0.00375
0 0.1 -1.21799 0.00375
1.11807 0.1 -0.483674 0.00368609
0.0363518 0.1 1.21799 0.00375084
0.0363518 0.1 -1.21799 0.00374962
1.11928 0.1 0.48325 0.00370608
1.10076 0.1 -0.524714 0.00367908
1.10076 0.1 0.524714 0.00369725
1.20938 0.1 -0.161328 0.00374565
1.20938 0.1 0.161328 0.00375867
1.08012 0.1 0.567953 0.00368906
1.08012 0.1 -0.567953 0.00367214
0.623803 0.1 1.05 0.00369116
0.623803 0.1 -1.05 0.00368409
1.0579 0.1 -0.612892 0.00366553
1.0579 0.1 0.612892 0.00368105
1.15704 0.1 -0.402888 0.00370324
1.15704 0.1 0.402888 0.00372528
1.14316 0.1 0.440974 0.0037173
1.14316 0.1 -0.440974 0.0036955
1.19808 0.1 -0.260384 0.00373182
1.19808 0.1 0.260384 0.00375135
1.2267 0.1 3.64292e-18 0.00376506
1.2267 0.1 -0.0636649 0.0037613
1.2267 0.1 0.0636649 0.00376723
1.1744 0.1 -0.364541 0.00371151
1.1744 0.1 0.364541 0.0037338
0.574156 0.1 1.0875 0.00369818
0.574156 0.1 -1.0875 0.00369107
1.20938 0.1 -0.225859 0.00373875
1.20938 0.1 0.225859 0.00375687
1.04168 0.1 0.656246 0.0036755
1.04168 0.1 -0.656246 0.00366048
1.22587 0.1 0.12733 0.00376712
1.2267 0.1 -0.12733 0.00375601
0.287374 0.1 -1.2 0.00372985
0.287374 0.1 1.2 0.00373504
1.02149 0.1 0.702294 0.00367015
1.02149 0.1 -0.702294 0.00365573
0.075776 0.1 1.2375 0.00375136
0.075776 0.1 -1.2375 0.00374885
0.522865 0.1 1.125 0.00370565
0.522865 0.1 -1.125 0.00369845
1.2267 0.1 0.190397 0.00376686
1.2267 0.1 -0.190994 0.0037494
1.19808 0.1 0.32548 0.00374739
1.19808 0.1 -0.32548 0.00372356
0.990306 0.1 0.75 0.00366627
0.990306 0.1 -0.75 0.00365288
1.24274 0.1 -0.0314313 0.00377011
1.24274 0.1 0.0314313 0.00377337
1.20938 0.1 -0.29039 0.00373083
1.20938 0.1 0.29039 0.00375365
1.24274 0.1 -0.0942942 0.00376523
1.24274 0.1 0.0942942 0.00377501
1.11807 0.1 -0.552769 0.00367747
1.11928 0.1 0.552285 0.00369962
1.15704 0.1 -0.470036 0.00369445
1.15704 0.1 0.470036 0.0037191
0.969689 0.1 0.7875 0.00366642
0.96969 0.1 -0.7875 0.00365245
0.93886 0.1 -0.825 0.00365202
0.93886 0.1 0.825 0.0036648
0.905821 0.1 0.8625 0.00366352
0.905821 0.1 -0.8625 0.00365201
1.1744 0.1 -0.430821 0.00370271
1.1744 0.1 0.430821 0.00372806
1.10076 0.1 0.594676 0.00369088
1.10076 0.1 -0.594676 0.00367033
1.14316 0.1 -0.508816 0.0036868
1.14316 0.1 0.508816 0.00371085
1.24274 0.1 0.157157 0.00377516
1.24274 0.1 -0.157157 0.00375891
1.2267 0.1 0.254158 0.00376472
1.2267 0.1 -0.254659 0.00374169
0.871687 0.1 -0.9 0.00365411
0.871687 0.1 0.9 0.00366483
0.467897 0.1 1.1625 0.00371337
0.467897 0.1 -1.1625 0.00370636
1.08012 0.1 0.638947 0.00368307
1.08012 0.1 -0.638947 0.00366381
1.25511 0.1 1.27213e-17 0.0037789
0.835106 0.1 0.9375 0.00366647
0.835106 0.1 -0.9375 0.00365673
1.25511 0.1 -0.0622446 0.00377439
1.25511 0.1 0.0622446 0.00378177
0.219992 0.1 1.2375 0.00374188
0.219992 0.1 -1.2375 0.0037376
0 0.1 -1.25701 0.00375
0 0.1 1.25701 0.00375
0.0363518 0.1 -1.25701 0.00374962
0.0363518 0.1 1.25701 0.00375084
0.797314 0.1 0.975 0.00366978
0.797314 0.1 -0.975 0.00366057
1.19808 0.1 0.389737 0.0037422
1.19808 0.1 -0.390576 0.0037146
1.0579 0.1 -0.684997 0.00365769
1.0579 0.1 0.684997 0.00367559
1.20938 0.1 -0.354921 0.00372206
1.20938 0.1 0.354921 0.0037491
1.25511 0.1 0.124489 0.00378301
1.25511 0.1 -0.124489 0.00376837
1.24274 0.1 -0.220019 0.00375145
1.24274 0.1 0.220019 0.0037738
0.756814 0.1 1.0125 0.0036735
0.756814 0.1 -1.0125 0.00366493
1.25305 0.1 0.186734 0.00378147
1.2267 0.1 0.317097 0.00376097
1.2267 0.1 -0.318324 0.00373309
0.411108 0.1 1.2 0.00372075
0.411108 0.1 -1.2 0.0037142
1.25511 0.1 -0.186734 0.00376112
0.714971 0.1 1.05 0.00367881
0.714971 0.1 -1.05 0.00367038
1.04168 0.1 0.729162 0.00367057
1.04168 0.1 -0.729162 0.00365299
1.24274 0.1 -0.282882 0.00374307
1.24274 0.1 0.282882 0.00377092
0 0.1 1.275 0.00375
0 0.1 -1.275 0.00375
1.1744 0.1 -0.497102 0.00369352
1.1744 0.1 0.497102 0.00372144
1.15704 0.1 -0.537184 0.00368503
1.15704 0.1 0.537184 0.0037122
1.2756 0.1 -0.03061 0.00378771
1.2756 0.1 0.03061 0.00379202
0.67013 0.1 1.0875 0.00368447
0.67013 0.1 -1.0875 0.00367637
1.25305 0.1 0.248978 0.0037798
1.2756 0.1 0.09183 0.00379459
1.2756 0.1 -0.09183 0.00378183
1.11807 0.1 -0.621866 0.00366831
1.25511 0.1 -0.248978 0.0037529
1.20938 0.1 0.419453 0.00374333
1.20938 0.1 -0.419453 0.00371272
1.11928 0.1 0.621322 0.00369289
1.14316 0.1 -0.576659 0.00367718
1.14316 0.1 0.576659 0.00370385
1.19808 0.1 0.454694 0.00373592
1.19808 0.1 -0.455673 0.00370511
1.02149 0.1 0.776219 0.00366594
1.02149 0.1 -0.776219 0.00364876
0.150379 0.1 1.275 0.00374642
0.150379 0.1 -1.275 0.00374317
1.2267 0.1 0.381603 0.00375587
1.2756 0.1 -0.15305 0.00377462
1.2756 0.1 0.15305 0.00379553
1.2267 0.1 -0.381989 0.00372373
1.10076 0.1 0.664638 0.00368442
1.10076 0.1 -0.664638 0.00366149
0.350249 0.1 1.2375 0.00372841
0.350249 0.1 -1.2375 0.00372257
0.623803 0.1 1.125 0.00369123
0.623803 0.1 -1.125 0.00368311