# kMean  POINT_DATA 91132
# x  y  z  kMean
0 0 0 0.00527585
0 0.00368111 0 0.00375
0 0.00749587 0 0.00375
0 0.0114491 0 0.00375
0 0.0155459 0 0.00375
0 0.0197915 0 0.00375
0 0.0241911 0 0.00375
0 0.0287506 0 0.00375
0 0.0334755 0 0.00375
0 0.038372 0 0.00375
0 0.0434463 0 0.00375
0 0.0487048 0 0.00375
0 0.0541543 0 0.00375
0 0.0598016 0 0.00375
0 0.0656539 0 0.00375
0 0.0717187 0 0.00375
0.075776 0.00184056 0 0.0087119
0.075776 0.00558849 3.46945e-18 0.00315395
0.075776 0.00947249 0 0.00298761
0.075776 0.0134975 0 0.00338358
0.075776 0.0176687 0 0.00356204
0 0.0780037 0 0.00375
0.075776 0.0219913 0 0.00363452
0.075776 0.0264709 -3.46945e-18 0.00367122
0.075776 0.031113 3.46945e-18 0.00369239
0.075776 0.0359238 0 0.00370589
0 0.0845169 0 0.00375
0.075776 0.0409091 0 0.00371512
0.075776 0.0460755 0 0.00372174
0 0.0912666 0 0.00375
0.075776 0.0514296 0 0.0037267
0.075776 0.0569779 0 0.00373052
0 0.0982613 0 0.00375
0.075776 0.0627277 -3.46945e-18 0.00373354
0.075776 0.0686863 0 0.00373598
0 0.10551 0 0.00375
0.075776 0.0748612 0 0.00373798
0.075776 0.0812603 0 0.00373968
0 0.113022 0 0.00375
0.075776 0.0878918 0 0.00374114
0 0.120806 0 0.00375
0.075776 0.0947639 0 0.00374241
0.075776 0.101886 -3.46945e-18 0.0037435
0 0.128874 0 0.00375
0.075776 0.109266 0 0.00374444
0 0.137234 0 0.00375
0.075776 0.116914 0 0.00374525
0 0.145897 0 0.00375
0.075776 0.12484 0 0.00374596
0.151552 0 0 0.00532389
0.151552 0.00368111 0 0.00379974
0.151552 0.00749587 0 0.00248417
0.151552 0.0114491 0 0.00294659
0.151552 0.0155459 0 0.00330799
0.151552 0.0197915 0 0.00346601
0.075776 0.133054 -3.46945e-18 0.00374657
0.151552 0.0241911 0 0.00354808
0.151552 0.0287506 0 0.00360087
0 0.154876 0 0.00375
0.151552 0.0334755 0 0.00363636
0.151552 0.038372 0 0.00366094
0.151552 0.0434463 0 0.00367857
0.151552 0.0487048 0 0.00369162
0.075776 0.141565 0 0.00374712
0.151552 0.0541543 0 0.00370156
0.151552 0.0598016 0 0.00370932
0 0.16418 0 0.00375
0.151552 0.0656539 0 0.0037155
0.151552 0.0717187 0 0.00372052
0.075776 0.150387 -3.46945e-18 0.00374763
0.151552 0.0780037 0 0.00372467
0.151552 0.0845169 0 0.00372816
0 0.173822 0 0.00375
0.075776 0.159528 -3.46945e-18 0.00374811
0.151552 0.0912666 0 0.00373112
0.151552 0.0982613 0 0.00373365
0 0.183814 0 0.00375
0.151552 0.10551 0 0.00373583
0.075776 0.169001 0 0.00374858
0.151552 0.113022 0 0.00373772
0.151552 0.120806 0 0.00373937
0 0.194169 0 0.00375
0.075776 0.178818 3.46945e-18 0.00374903
0.151552 0.128874 0 0.00374082
0.075776 0.188991 0 0.00374948
0.151552 0.137234 0 0.00374211
0 0.2049 0 0.00375
0.151552 0.145897 0 0.00374326
0.075776 0.199534 0 0.00374993
0 0.21602 0 0.00375
0.151552 0.154876 0 0.00374431
0.219992 0.00184055 0 0.00219662
0.219992 0.00558849 -3.46945e-18 0.00146461
0.219992 0.00947248 3.46945e-18 0.00242074
0.219992 0.0134975 -3.46945e-18 0.0030312
0.219992 0.0176687 3.46945e-18 0.00328047
0.219992 0.0219913 3.46945e-18 0.00340735
0.219993 0.0264709 0 0.00349536
0.219992 0.031113 -3.46945e-18 0.00355695
0.219992 0.0359237 3.46945e-18 0.00359987
0.151552 0.16418 0 0.00374526
0.075776 0.21046 3.46945e-18 0.00375036
0.219992 0.0409092 0 0.00363052
0.219992 0.0460755 0 0.00365303
0.219993 0.0514296 0 0.00367002
0.219992 0.0569779 0 0.00368315
0 0.227544 0 0.00375
0.219992 0.0627277 0 0.00369353
0.219992 0.0686863 -3.46945e-18 0.0037019
0.151552 0.173822 0 0.00374614
0.219992 0.0748612 3.46945e-18 0.00370875
0.075776 0.221782 0 0.00375077
0.219992 0.0812603 0 0.00371445
0.219992 0.0878917 0 0.00371925
0.151552 0.183814 0 0.00374696
7.47806e-17 0.239487 0 0.00375
0.219993 0.0947639 0 0.00372332
0.219992 0.101886 0 0.00372681
0.075776 0.233515 3.46945e-18 0.00375113
0.219993 0.109266 0 0.00372983
0.151552 0.194169 0 0.00374773
0.219992 0.116914 3.46945e-18 0.00373246
0 0.251863 0 0.00375
0.219992 0.12484 -3.46945e-18 0.00373477
0.151552 0.2049 0 0.00374845
0.075776 0.245675 0 0.00375145
0.219992 0.133054 0 0.00373682
0.219992 0.141566 0 0.00373865
0.151552 0.21602 0 0.00374913
0 0.264688 0 0.00375
0.219993 0.150387 0 0.00374028
0.075776 0.258275 3.46945e-18 0.00375171
0.219992 0.159528 0 0.00374175
0.151552 0.227544 0 0.00374977
0.219993 0.169001 -3.46945e-18 0.00374308
0 0.27798 0 0.00375
0.075776 0.271334 0 0.00375191
0.151552 0.239487 3.70071e-18 0.00375035
0.219992 0.178818 0 0.00374428
0.288433 0 0 0.00152525
0.288433 0.00368111 0 0.00136448
0.288433 0.00749587 0 0.00179681
0.288433 0.0114491 0 0.00270879
0.288433 0.0155459 0 0.00314687
0.288433 0.0197915 0 0.00331455
0.288433 0.0241911 0 0.00340002
0.288433 0.0287506 0 0.00346853
0.219993 0.188991 0 0.00374539
0.288433 0.0334755 0 0.00352465
0.288433 0.038372 0 0.00356819
0.288433 0.0434463 0 0.0036017
7.47806e-17 0.291753 0 0.00375
0.288433 0.0487048 0 0.00362769
0.288433 0.0541543 0 0.00364809
0.151552 0.251863 0 0.00375089
0.288433 0.0598016 0 0.00366436
0.075776 0.284867 0 0.00375206
0.288433 0.0656539 0 0.0036775
0.219992 0.199534 0 0.00374641
0.288433 0.0717187 0 0.00368826
0.288433 0.0780037 0 0.00369718
0.288433 0.0845169 0 0.00370463
0.288433 0.0912666 0 0.00371089
0.219992 0.21046 0 0.00374736
0.288433 0.0982613 0 0.00371621
0.151552 0.264688 3.70071e-18 0.00375137
0 0.306027 0 0.00375
0.288433 0.10551 0 0.00372085
0.075776 0.29889 -3.46945e-18 0.00375214
0.288433 0.113022 0 0.00372497
0.219992 0.221782 0 0.00374826
0.288433 0.120806 0 0.00372863
0.288433 0.128874 0 0.0037319
0.151552 0.27798 0 0.0037518
0.288433 0.137234 0 0.00373483
0 0.320819 0 0.00375
0.219993 0.233515 0 0.0037491
0.075776 0.313423 3.46945e-18 0.00375215
0.288433 0.145897 0 0.00373747
0.288433 0.154876 0 0.00373984
0.151552 0.291753 0 0.00375217
0.219993 0.245675 0 0.00374988
0.288433 0.16418 0 0.00374196
0 0.336148 0 0.00375
0.288433 0.173822 0 0.00374386
0.075776 0.328484 0 0.0037521
0.219992 0.258275 0 0.00375063
0.151552 0.306027 0 0.00375247
0.288433 0.183814 0 0.00374555
0.288433 0.194169 0 0.00374707
0.219993 0.271334 0 0.00375131
0.350249 0.00184056 0 0.000903258
0.350249 0.00558849 3.46945e-18 0.00096195
0.350249 0.00947248 0 0.00236138
0.350249 0.0134975 3.46945e-18 0.00302438
0.350249 0.0176687 -3.46945e-18 0.00325272
0.350249 0.0219913 0 0.00332195
0.350249 0.0264709 -3.46945e-18 0.00338296
0.350249 0.031113 0 0.00344732
0 0.352034 0 0.00375
0.350249 0.0359238 3.46945e-18 0.00350238
0.075776 0.344091 0 0.00375205
0.350249 0.0409091 3.46945e-18 0.00354688
0.350249 0.0460755 -3.46945e-18 0.00358226
0.288433 0.2049 0 0.00374842
0.350249 0.0514296 0 0.00361041
0.151552 0.320819 0 0.00375271
0.350249 0.0569779 0 0.00363299
0.350249 0.0627277 0 0.00365128
0.350249 0.0686863 0 0.00366625
0.350249 0.0748612 0 0.00367864
0.350249 0.0812603 0 0.00368897
0.219992 0.284867 0 0.00375194
0.288433 0.21602 0 0.00374963
0.350249 0.0878918 0 0.00369763
0.350249 0.0947639 0 0.00370488
0.350249 0.101886 0 0.00371113
0.350249 0.109266 3.46945e-18 0.00371673
0.288433 0.227544 0 0.00375073
0.075776 0.360265 0 0.00375205
0 0.368496 0 0.00375
0.151552 0.336148 0 0.00375292
0.350249 0.116914 -3.46945e-18 0.00372176
0.219992 0.29889 -3.46945e-18 0.00375251
0.370854 0.0241911 -3.08149e-33 0.003375
0.350249 0.12484 3.46945e-18 0.00372625
0.350249 0.133054 0 0.00373031
0.288433 0.239487 -9.25154e-19 0.00375174
0.350249 0.141565 3.46945e-18 0.00373398
0.350249 0.150387 0 0.00373728
0.288433 0.251863 0 0.00375265
0.219992 0.313423 0 0.00375302
0.151552 0.352034 0 0.00375312
0.075776 0.377026 -3.46945e-18 0.00375211
0.350249 0.159528 0 0.00374024
0 0.385557 0 0.00375
0.350249 0.169001 3.46945e-18 0.00374286
0.288433 0.264688 0 0.00375349
0.350249 0.178818 3.46945e-18 0.00374518
0.219992 0.328484 0 0.00375348
0.350249 0.188991 0 0.00374725
0.151552 0.368496 0 0.00375335
0.288433 0.27798 3.70071e-18 0.00375426
0.075776 0.394396 -3.46945e-18 0.00375221
0.350249 0.199535 3.46945e-18 0.00374906
7.47806e-17 0.403236 0 0.00375
0.219992 0.344091 -3.46945e-18 0.0037539
0.350249 0.21046 3.46945e-18 0.00375063
0.288433 0.291753 0 0.00375498
0.412065 9.08189e-19 3.08149e-33 0.000775919
0.412065 0.00368111 3.08149e-33 0.000855462
0.412065 0.00749587 3.08149e-33 0.00171154
0.412065 0.0114491 0 0.00283155
0.412065 0.0155459 0 0.00325457
0.412065 0.0197915 0 0.00334375
0.412065 0.0241911 -3.08149e-33 0.00336249
0.412065 0.0264709 0 0.00337811
0.412065 0.0287506 0 0.00339373
0.412065 0.0334755 3.08149e-33 0.0034409
0.412065 0.038372 3.08149e-33 0.00348881
0.151552 0.385557 0 0.00375361
0.412065 0.0434463 0 0.00353115
0.350249 0.221782 3.46945e-18 0.00375202
0.412065 0.0487048 0 0.00356673
0.412065 0.0541543 0 0.00359613
0.412065 0.0569779 0 0.00360824
0.412065 0.0598016 0 0.00362034
0.412065 0.0656539 3.08149e-33 0.00364033
0.412065 0.0717187 3.08149e-33 0.00365691
0.075776 0.412396 -3.46945e-18 0.0037523
0.412065 0.0780037 -2.31298e-18 0.00367074
0.288433 0.306027 0 0.00375566
0.412065 0.0845169 2.31112e-33 0.00368231
0.350249 0.233515 0 0.00375326
0 0.421557 0 0.00375
0.412065 0.0912666 1.54074e-33 0.00369208
0.219992 0.360265 0 0.00375431
0.412065 0.0982613 0 0.00370058
0.412065 0.10551 0 0.00370822
0.412065 0.113022 -2.31298e-18 0.00371515
0.350249 0.245675 3.46945e-18 0.00375438
0.412065 0.120806 0 0.00372141
0.151552 0.403236 0 0.00375388
0.288433 0.320819 0 0.00375632
0.412065 0.128874 -2.31298e-18 0.00372707
0.412065 0.137234 0 0.00373216
0.350249 0.258275 3.46945e-18 0.00375538
0.219993 0.377026 0 0.00375472
0.412065 0.145897 -2.31298e-18 0.00373673
0.075776 0.43105 -3.46945e-18 0.00375236
0.412065 0.154876 -2.31298e-18 0.00374081
0 0.440544 0 0.00375
0.288433 0.336148 0 0.00375696
0.350249 0.271334 0 0.00375629
0.412065 0.16418 -2.31298e-18 0.00374443
0.412065 0.173822 -2.31298e-18 0.00374761
0.151552 0.421557 0 0.00375414
0.412065 0.183814 -2.31298e-18 0.0037504
0.350249 0.284866 3.46945e-18 0.00375713
0.219992 0.394397 -3.46945e-18 0.00375515
0.288433 0.352034 3.70071e-18 0.00375758
0.412065 0.194169 0 0.00375285
0.075776 0.450382 -3.46945e-18 0.00375239
0.412065 0.2049 -2.31298e-18 0.00375499
0 0.46022 0 0.00375
0.350249 0.29889 -3.46945e-18 0.00375794
0.412065 0.21602 0 0.00375687
0.151552 0.440544 0 0.00375439
0.219993 0.412397 3.46945e-18 0.0037556
0.467897 0.00184056 3.46945e-18 0.000657465
0.467897 0.00558849 3.46945e-18 0.000909938
0.288433 0.368496 0 0.00375819
0.467897 0.00947248 0 0.00260598
0.467897 0.0134975 3.46945e-18 0.00331516
0.467897 0.0176687 0 0.00340983
0.467897 0.0219913 0 0.00338265
0.467897 0.0264709 0 0.00336102
0.467897 0.031113 0 0.00338661
0.467897 0.0359238 3.46945e-18 0.00343203
0.467897 0.038372 0 0.00346216
0.467897 0.0409092 0 0.00347896
0.350249 0.313423 3.46945e-18 0.00375875
0.467897 0.0460756 3.46945e-18 0.00352116
0.467897 0.0514296 0 0.00355723
0.412065 0.227544 -2.31298e-18 0.00375851
0.467897 0.0569779 0 0.00358747
0.467897 0.0627277 3.46945e-18 0.00361268
0.467897 0.0686863 3.46945e-18 0.00363369
0.467897 0.0748612 0 0.00365123
0.467897 0.0812603 0 0.00366592
0.467897 0.0878917 0 0.00367823
0.075776 0.470415 0 0.00375241
0.412065 0.239487 -2.31298e-18 0.00375995
0.467897 0.0947639 -3.46945e-18 0.00368886
0.467897 0.101886 0 0.00369849
0.350249 0.328483 3.46945e-18 0.00375958
0.467897 0.109266 0 0.00370731
0 0.48061 0 0.00375
0.288433 0.385557 0 0.0037588
0.467897 0.116914 -3.46945e-18 0.00371536
0.412065 0.251863 -2.31298e-18 0.00376122
0.219992 0.43105 -3.46945e-18 0.00375604
0.467897 0.12484 0 0.00372265
0.151552 0.46022 0 0.00375461
0.467897 0.133054 0 0.00372922
0.467897 0.141566 0 0.00373512
0.412065 0.264688 -2.31298e-18 0.00376234
0.350249 0.344091 0 0.0037604
0.467897 0.150387 3.46945e-18 0.00374039
0.467897 0.154876 0 0.0037443
0.467897 0.159528 0 0.00374505
0.288433 0.403236 0 0.00375941
0.075776 0.491175 0 0.00375243
0.412065 0.27798 -2.31298e-18 0.00376335
0.467897 0.169001 0 0.00374915
0.467897 0.178818 3.46945e-18 0.00375274
0.219992 0.450382 -3.46945e-18 0.00375645
7.47806e-17 0.501741 0 0.00375
0.350249 0.360265 0 0.0037612
0.151552 0.48061 3.70071e-18 0.00375481
0.467897 0.188992 0 0.00375585
0.412065 0.291753 0 0.00376429
0.467897 0.199534 -3.46945e-18 0.00375858
0.288433 0.421557 0 0.00376003
0.467897 0.21046 0 0.00376099
0.412065 0.306027 0 0.00376518
0.350249 0.377026 -3.46945e-18 0.00376199
0.467897 0.221782 -3.46945e-18 0.00376308
0.075776 0.51269 3.46945e-18 0.00375245
0.219992 0.470415 3.46945e-18 0.00375684
0.412065 0.320819 -2.31298e-18 0.00376606
0.467897 0.233515 3.46945e-18 0.00376488
7.47806e-17 0.523639 0 0.00375
0.523729 0 0 0.000591154
0.523729 0.00368111 0 0.000744483
0.523729 0.00749587 0 0.00182759
0.523729 0.0114491 0 0.00315218
0.523729 0.0155459 0 0.00356452
0.523729 0.0197915 3.08149e-33 0.00352951
0.151552 0.501741 0 0.003755
0.523729 0.0241911 0 0.00343752
0.523729 0.0287506 0 0.0033928
0.523729 0.0334755 0 0.00340139
0.523729 0.038372 -3.08149e-33 0.0034355
0.523729 0.0434463 0 0.0034764
0.523729 0.0487048 0 0.00351589
0.523729 0.0541543 0 0.00355108
0.288433 0.440544 0 0.00376062
0.523729 0.0598016 0 0.00358144
0.350249 0.394397 0 0.00376277
0.523729 0.0656539 0 0.00360727
0.467897 0.245675 0 0.00376644
0.523729 0.0717187 0 0.0036291
0.523729 0.0780037 0 0.00364749
0.523729 0.0845169 0 0.00366303
0.523729 0.0912666 0 0.00367647
0.412065 0.336148 0 0.00376693
0.523729 0.0982613 0 0.00368857
0.523729 0.10551 -2.31298e-18 0.00369966
0.467897 0.258275 0 0.0037678
0.523729 0.113022 0 0.00370981
0.523729 0.120806 -3.08149e-33 0.00371907
0.219992 0.491176 3.46945e-18 0.0037572
0.523729 0.12484 0 0.00372326
0.523729 0.128874 -2.31298e-18 0.00372745
0.075776 0.534986 3.46945e-18 0.00375249
0.467897 0.271334 3.46945e-18 0.003769
0.350249 0.412396 3.46945e-18 0.00376355
0.523729 0.137234 0 0.00373501
0.412065 0.352034 -2.31298e-18 0.0037678
0.288433 0.46022 0 0.0037612
0.523729 0.145897 0 0.00374178
0.151552 0.523639 0 0.00375519
0.495813 0.227544 -1.54074e-33 0.00377016
0.523729 0.154876 -3.08149e-33 0.00374779
0 0.546332 0 0.00375
0.523729 0.159528 0 0.00375045
0.467897 0.284867 0 0.00377007
0.523729 0.16418 -2.31298e-18 0.00375311
0.523729 0.173822 0 0.00375777
0.412065 0.368496 0 0.00376865
0.523729 0.183814 0 0.00376182
0.467897 0.29889 3.46945e-18 0.00377107
0.350249 0.431051 0 0.00376431
0.219993 0.51269 3.46945e-18 0.00375754
0.523729 0.194169 0 0.00376535
0.288433 0.48061 0 0.00376174
0.523729 0.2049 0 0.00376841
0.467897 0.313423 0 0.00377202
0.075776 0.55809 0 0.00375254
0.412065 0.385557 0 0.0037695
0.523729 0.21602 -3.08149e-33 0.00377106
0.151552 0.546332 0 0.00375537
0 0.569849 0 0.00375
0.350249 0.450382 3.46945e-18 0.00376506
0.467897 0.328483 -3.46945e-18 0.00377294
0.574156 0.00184055 0 0.000529194
0.574156 0.00558849 0 0.000886489
0.574156 0.00947248 3.46945e-18 0.00289889
0.574156 0.0134975 -3.46945e-18 0.00376359
0.574157 0.0176687 3.46945e-18 0.00374303
0.574156 0.0219913 0 0.00356504
0.574156 0.0264708 0 0.00343275
0.574157 0.031113 3.46945e-18 0.00338833
0.574156 0.0359237 3.46945e-18 0.00339962
0.574157 0.0409092 3.46945e-18 0.00343403
0.523729 0.239487 0 0.00377528
0.574156 0.0460755 -3.46945e-18 0.00347455
0.574156 0.0514296 0 0.00351365
0.412065 0.403236 0 0.00377034
0.574157 0.0569779 0 0.00354876
0.574156 0.0627277 0 0.00357931
0.574156 0.0686863 0 0.00360549
0.219992 0.534985 0 0.00375785
0.288433 0.501741 3.70071e-18 0.00376225
0.574156 0.0748612 0 0.00362775
0.574156 0.0812603 3.46945e-18 0.00364654
0.467897 0.344091 0 0.00377386
0.574156 0.0878917 0 0.00366264
0.523729 0.251863 0 0.00377694
0.574156 0.0947639 -3.46945e-18 0.0036771
0.574156 0.101886 3.46945e-18 0.0036905
0.574156 0.109266 -3.46945e-18 0.00370277
0.574156 0.116914 3.46945e-18 0.00371401
0.412065 0.416977 1.54074e-33 0.00377097
0.350249 0.470415 0 0.00376578
0.523729 0.264688 0 0.00377837
0.075776 0.582034 0 0.00375259
0.574156 0.12484 3.46945e-18 0.00372424
0.574156 0.133054 0 0.0037335
0.412065 0.421557 3.08149e-33 0.00377119
0.151552 0.569849 0 0.00375555
0.467897 0.360265 -3.46945e-18 0.00377476
0.574156 0.141565 -3.46945e-18 0.00374182
0.523729 0.27798 0 0.00377962
0.574156 0.150386 0 0.00374925
0 0.594219 0 0.00375
0.574157 0.159528 0 0.00375583
0.574156 0.16418 0 0.0037602
0.288433 0.523639 -9.25154e-19 0.00376272
0.574156 0.169001 -3.46945e-18 0.00376161
0.523729 0.291753 0 0.00378074
0.219993 0.558091 3.46945e-18 0.00375816
0.467897 0.377027 -3.46945e-18 0.00377567
0.574156 0.178818 0 0.00376667
0.412065 0.440544 -2.31298e-18 0.00377202
0.350249 0.491175 3.46945e-18 0.00376645
0.574156 0.188992 0 0.00377105
0.523729 0.306027 2.31298e-18 0.00378175
0.574156 0.199534 0 0.00377484
0.574157 0.21046 -3.46945e-18 0.0037781
0.075776 0.606847 0 0.00375265
0.467897 0.394397 0 0.00377658
0.151552 0.594219 0 0.00375573
0.523729 0.320819 0 0.0037827
0.574156 0.221782 -3.46945e-18 0.00378089
0.412065 0.46022 -2.31298e-18 0.00377284
0.288433 0.546332 0 0.00376317
0 0.619475 0 0.00375
0.574156 0.233515 3.46945e-18 0.00378326
0.350249 0.51269 0 0.00376709
0.219992 0.582034 3.46945e-18 0.00375847
0.523729 0.336148 0 0.00378362
0.467897 0.412396 -3.46945e-18 0.00377749
0.574156 0.245675 3.46945e-18 0.00378527
0.624584 0 0 0.000483936
0.624584 0.00368111 0 0.000683852
0.624584 0.00749587 0 0.00195986
0.624584 0.0114491 0 0.00352533
0.624584 0.0155459 0 0.00399926
0.624584 0.0197915 0 0.00385281
0.624584 0.0241911 3.08149e-33 0.00362118
0.624584 0.0287506 0 0.00347157
0.624584 0.0334755 0 0.00341424
0.624584 0.038372 0 0.00341586
0.624584 0.0434463 0 0.00344302
0.624584 0.0487048 0 0.00347907
0.624584 0.0541543 0 0.0035158
0.624584 0.0598016 0 0.0035498
0.624584 0.0656539 0 0.00357998
0.624584 0.0717187 0 0.00360618
0.624584 0.0780037 0 0.0036286
0.574157 0.258275 -3.46945e-18 0.00378698
0.624584 0.0845169 0 0.00364789
0.523729 0.352034 0 0.00378452
0.624584 0.0912666 0 0.00366511
0.624584 0.0982613 0 0.00368101
0.412065 0.48061 -2.31298e-18 0.00377362
0.624584 0.10551 0 0.00369571
0.624584 0.113022 -2.31298e-18 0.0037092
0.574156 0.271334 -3.46945e-18 0.00378843
0.624584 0.120806 0 0.00372154
0.467897 0.43105 3.46945e-18 0.0037784
0.075776 0.632561 0 0.00375271
0.624584 0.128874 0 0.00373276
0.151552 0.619475 0 0.00375592
0.288433 0.569849 0 0.00376359
0.350249 0.534985 0 0.00376768
0.624584 0.137234 -2.31298e-18 0.00374291
0.523729 0.368496 0 0.00378541
0.574156 0.284867 0 0.00378969
0.624584 0.145897 0 0.00375202
0.467897 0.440544 0 0.00378051
0.624584 0.154876 0 0.00376013
0.219992 0.606847 0 0.00375876
0 0.645647 0 0.00375
0.624584 0.16418 -3.08149e-33 0.0037673
0.574156 0.29889 3.46945e-18 0.0037908
0.624584 0.173822 0 0.00377359
0.412065 0.501741 -2.31298e-18 0.00377436
0.467897 0.450382 -3.46945e-18 0.0037793
0.523729 0.385557 -3.08149e-33 0.00378629
0.624584 0.183814 0 0.00377906
0.624584 0.194169 0 0.00378379
0.574157 0.313423 -3.46945e-18 0.0037918
0.624584 0.2049 0 0.00378784
0.350249 0.558091 0 0.00376823
0.288433 0.594219 0 0.003764
0.624584 0.21602 0 0.0037913
0.523729 0.403236 -3.70071e-18 0.00378719
0.574156 0.328483 -3.46945e-18 0.00379273
0.151552 0.645647 0 0.0037561
0.467897 0.470415 0 0.00378019
0.075776 0.659208 0 0.00375278
0.624584 0.227544 0 0.00379423
0.412065 0.523639 -2.31298e-18 0.00377505
0.523729 0.41545 -1.54074e-33 0.00378779
0.624584 0.239487 3.70071e-18 0.0037967
0.574156 0.344091 3.46945e-18 0.00379363
0.219992 0.632561 0 0.00375905
0.67013 0.00184055 -3.46945e-18 0.000441447
0.67013 0.00558849 -3.46945e-18 0.000881224
0.67013 0.00947248 3.46945e-18 0.00316471
0.67013 0.0134975 -3.46945e-18 0.00425042
0.67013 0.0176687 3.46945e-18 0.00420993
0.67013 0.0219913 0 0.00386894
0.67013 0.0264708 0 0.00360303
0.67013 0.031113 0 0.0034547
0.67013 0.0359237 0 0.00341184
0.67013 0.0409092 3.46945e-18 0.00341806
0.67013 0.0460755 3.46945e-18 0.00344681
0.67013 0.0514296 0 0.0034831
0.523729 0.421557 3.08149e-33 0.00378809
0.67013 0.0569779 0 0.00351958
0 0.67277 0 0.00375
0.67013 0.0627277 -3.46945e-18 0.00355331
0.624584 0.251863 0 0.00379877
0.67013 0.0686863 0 0.00358332
0.67013 0.0748612 0 0.00360942
0.67013 0.0812603 0 0.00363173
0.67013 0.0878918 0 0.00365146
0.67013 0.0947639 0 0.00366982
0.574156 0.360265 3.46945e-18 0.0037945
0.67013 0.101886 0 0.00368695
0.523729 0.431051 0 0.00378854
0.624584 0.264688 0 0.0038005
0.467897 0.491175 3.46945e-18 0.00378103
0.67013 0.109266 3.46945e-18 0.00370274
0.350249 0.582034 0 0.00376875
0.67013 0.116914 0 0.00371719
0.67013 0.12484 0 0.00373041
0.67013 0.133054 0 0.00374243
0.288433 0.619475 0 0.00376439
0.624584 0.27798 2.31298e-18 0.00380196
0.412065 0.546332 -2.31298e-18 0.00377569
0.523729 0.440544 -3.08149e-33 0.00378899
0.67013 0.141566 0 0.00375326
0.685312 0.0241911 -7.70372e-34 0.00381533
0.685312 0.0434463 -7.70372e-34 0.00343861
0.67013 0.150386 0 0.00376296
0.574157 0.377027 -3.46945e-18 0.00379537
0.67013 0.159528 -3.46945e-18 0.00377157
0.624584 0.291753 0 0.0038032
0.151552 0.67277 0 0.00375628
0.075776 0.686823 0 0.00375285
0.67013 0.169001 -3.46945e-18 0.00377915
0.67013 0.178818 0 0.00378577
0.467897 0.51269 0 0.00378183
0.685312 0.113022 -7.70372e-34 0.00371151
0.219992 0.659208 0 0.00375934
0.624584 0.306027 0 0.00380428
0.67013 0.188992 0 0.0037915
0.574157 0.394397 0 0.00379625
0.523729 0.46022 0 0.00378988
0.685312 0.137234 -7.70372e-34 0.00375094
0.67013 0.199535 0 0.00379643
0.350249 0.606847 0 0.00376925
0 0.700877 0 0.00375
0.624584 0.320819 0 0.00380524
0.67013 0.21046 0 0.00380062
0.412065 0.569849 -2.31298e-18 0.00377629
0.67013 0.221782 0 0.00380417
0.574156 0.412396 0 0.00379713
0.288433 0.645647 0 0.00376476
0.624584 0.336148 0 0.00380612
0.67013 0.233516 -3.46945e-18 0.00380714
0.467897 0.534986 0 0.00378257
0.523729 0.48061 0 0.00379075
0.624584 0.344091 0 0.00380653
0.67013 0.245675 0 0.00380962
0.715676 4.54095e-19 0 0.000407295
0.715676 0.00368111 -9.25187e-19 0.000643057
0.715676 0.00749587 -9.25187e-19 0.00207382
0.715676 0.0114491 -9.25187e-19 0.00386893
0.715676 0.0155459 -9.25187e-19 0.0044706
0.715676 0.0197915 -9.25187e-19 0.00427665
0.715676 0.0241911 -9.25187e-19 0.0039124
0.715676 0.0287506 0 0.00363858
0.715676 0.0334755 0 0.00348958
0.715676 0.038372 -9.25187e-19 0.00343685
0.624584 0.352034 3.08149e-33 0.00380695
0.715676 0.0434463 -9.25187e-19 0.00343641
0.151552 0.700877 0 0.00375645
0.715676 0.0487048 0 0.00346022
0.715676 0.0541543 0 0.003493
0.574156 0.43105 3.46945e-18 0.00379803
0.715676 0.0598016 -9.25187e-19 0.00352732
0.67013 0.258275 3.46945e-18 0.00381167
0.715676 0.0656539 -9.25187e-19 0.00355977
0.715676 0.0717187 -9.25187e-19 0.00358901
0.075776 0.715441 0 0.00375293
0.715676 0.0780037 0 0.00361465
0.715676 0.0845169 0 0.00363728
0.219992 0.686824 0 0.00375961
0.715676 0.0912666 0 0.00365808
0.715676 0.0982613 0 0.00367763
0.67013 0.271334 3.46945e-18 0.00381337
0.350249 0.632561 -3.46945e-18 0.00376971
0.412065 0.594219 -2.31298e-18 0.00377684
0.715676 0.10551 0 0.00369585
0.715676 0.113022 0 0.00371266
0.624584 0.368496 0 0.00380776
0.523729 0.501741 3.70071e-18 0.00379158
0.715676 0.120806 0 0.00372808
0.715676 0.128874 0 0.00374216
0.67013 0.284867 0 0.00381478
0.467897 0.558091 3.46945e-18 0.00378325
0.715676 0.137234 0 0.00375495
0.574156 0.450382 3.46945e-18 0.00379893
0 0.730005 0 0.00375
0.715676 0.145897 0 0.00376648
0.288433 0.67277 0 0.00376511
0.715676 0.154876 0 0.00377677
0.67013 0.29889 -3.46945e-18 0.00381597
0.624584 0.385557 0 0.00380857
0.715676 0.16418 0 0.00378588
0.715676 0.173822 0 0.00379388
0.715676 0.183814 0 0.00380084
0.67013 0.313423 -3.46945e-18 0.00381698
0.523729 0.523639 3.70071e-18 0.00379236
0.715676 0.194169 0 0.00380684
0.574156 0.470415 0 0.00379982
0.624584 0.403236 -3.70071e-18 0.00380938
0.743101 0.0241911 -7.70372e-34 0.00404113
0.412065 0.619475 -2.31298e-18 0.00377735
0.715676 0.2049 0 0.00381197
0.151552 0.730005 0 0.00375662
0.67013 0.328483 0 0.00381787
0.350249 0.659208 0 0.00377014
0.467897 0.582034 0 0.00378387
0.715676 0.21602 0 0.00381631
0.219992 0.715441 0 0.00375988
0.075776 0.745098 0 0.003753
0.715676 0.227544 0 0.00381995
0.67013 0.344091 0 0.00381868
0.624584 0.421557 0 0.0038102
0.743101 0.128874 -7.70372e-34 0.00374635
0.715676 0.239487 0 0.00382297
0.574156 0.491175 3.46945e-18 0.00380068
0.756814 0.00184056 -3.46945e-18 0.000375072
0.523729 0.546332 0 0.00379307
0.756813 0.00558849 -3.46945e-18 0.000876564
0.756813 0.00947248 -3.46945e-18 0.00336715
0.756813 0.0134975 -3.46945e-18 0.0046753
0.756814 0.0155459 0 0.00469791
0.756814 0.0176687 0 0.00471963
0.756814 0.0219913 3.46945e-18 0.00428131
0.756814 0.0264709 3.46945e-18 0.0038764
0.756813 0.0311131 3.46945e-18 0.00360779
0.756813 0.0359238 -3.46945e-18 0.00347764
0.288433 0.700877 0 0.00376545
0.756813 0.0409092 -3.46945e-18 0.00343738
0.756813 0.0460755 0 0.00344294
0.756813 0.0514296 0 0.00346856
0.715676 0.251863 0 0.00382546
0.756814 0.0569779 0 0.00350169
0.756814 0.0627277 0 0.00353572
0.756814 0.0686863 0 0.0035677
0 0.76019 0 0.00375
0.756813 0.0748612 0 0.00359642
0.67013 0.360265 -3.46945e-18 0.00381945
0.756814 0.0812603 0 0.00362169
0.756814 0.0878917 0 0.00364472
0.756813 0.0947639 -3.46945e-18 0.00366661
0.715676 0.264688 0 0.0038275
0.756814 0.101886 -3.46945e-18 0.00368723
0.624584 0.440544 0 0.00381103
0.756814 0.109266 0 0.00370638
0.756814 0.116914 0 0.00372402
0.412065 0.645647 0 0.00377782
0.467897 0.606847 -3.46945e-18 0.00378444
0.756814 0.120806 0 0.00373294
0.756813 0.12484 3.46945e-18 0.0037402
0.715676 0.27798 -9.25187e-19 0.00382916
0.756813 0.133054 -3.46945e-18 0.00375497
0.67013 0.377027 0 0.00382019
0.756814 0.137234 0 0.00376254
0.574157 0.51269 3.46945e-18 0.0038015
0.756813 0.141566 3.46945e-18 0.00376836
0.685312 0.352034 -7.70372e-34 0.00382505
0.743101 0.2049 -7.70372e-34 0.00382115
0.350249 0.686824 0 0.00377055
0.756813 0.150386 -3.46945e-18 0.00378038
0.756814 0.154876 0 0.00378666
0.715676 0.291753 3.70074e-18 0.00383052
0.756814 0.159528 3.46945e-18 0.00379109
0.523729 0.569849 0 0.00379372
0.72743 0.264688 0 0.00383188
0.756814 0.16418 0 0.00379677
0.151552 0.76019 3.70071e-18 0.00375679
0.756813 0.169001 -3.46945e-18 0.00380053
0.624584 0.46022 0 0.00381187
0.219993 0.745098 0 0.00376014
0.67013 0.394396 -3.46945e-18 0.00382093
0.756813 0.178818 -3.46945e-18 0.00380878
0.715676 0.306027 -9.25187e-19 0.00383163
0.075776 0.775831 0 0.00375308
0.756814 0.188992 0 0.00381593
0.756814 0.199535 0 0.00382206
0.715676 0.320819 0 0.00383257
0.574156 0.534986 3.46945e-18 0.00380225
0.288433 0.730005 0 0.00376576
0.756814 0.21046 3.46945e-18 0.00382726
0.467897 0.632561 0 0.00378496
0.67013 0.412396 -3.46945e-18 0.00382169
0.624584 0.48061 -3.08149e-33 0.00381269
0.756814 0.221782 0 0.00383162
0.412065 0.67277 -2.31298e-18 0.00377825
0.715676 0.336148 0 0.00383337
0 0.791472 0 0.00375
0.756813 0.233515 3.46945e-18 0.00383525
0.523729 0.594219 0 0.00379431
0.624584 0.487654 1.54074e-33 0.00381295
0.756814 0.245675 0 0.00383824
0.350249 0.715441 3.46945e-18 0.00377093
0.67013 0.43105 3.46945e-18 0.00382245
0.715676 0.352034 -9.25187e-19 0.00383409
0.797951 9.08189e-19 0 0.000348834
0.797951 0.00368111 2.31298e-18 0.000609742
0.797951 0.00749587 2.31298e-18 0.00215717
0.797951 0.0114491 2.31298e-18 0.00415926
0.797951 0.0141803 7.70372e-34 0.00466989
0.797951 0.0155459 0 0.00492521
0.797951 0.0169611 7.70372e-34 0.00486823
0.797951 0.0197915 -3.08149e-33 0.00475428
0.797951 0.0219913 0 0.00452643
0.797951 0.0241911 3.08149e-33 0.00429858
0.797951 0.0264709 0 0.00409693
0.797951 0.0287506 -3.08149e-33 0.00389527
0.797951 0.0334755 2.31298e-18 0.00363573
0.797951 0.038372 2.31298e-18 0.00350728
0.797951 0.0434463 2.31298e-18 0.00346224
0.797951 0.0487048 2.31298e-18 0.003463
0.756814 0.258275 -3.46945e-18 0.00384066
0.797951 0.0541543 2.31298e-18 0.0034851
0.797951 0.0598016 2.31298e-18 0.00351542
0.797951 0.0656539 2.31298e-18 0.00354745
0.574156 0.55809 3.46945e-18 0.00380294
0.624584 0.501741 3.70071e-18 0.00381348
0.797951 0.0717187 2.31298e-18 0.00357797
0.797951 0.0780037 2.31298e-18 0.00360577
0.797951 0.0845169 0 0.00363117
0.797951 0.0912666 0 0.00365512
0.797951 0.0982613 -3.08149e-33 0.00367794
0.756814 0.271334 3.46945e-18 0.00384262
0.797951 0.10551 0 0.00369941
0.715676 0.368496 -9.25187e-19 0.00383476
0.151552 0.791472 3.70071e-18 0.00375696
0.797951 0.113022 0 0.00371938
0.219992 0.775831 3.46945e-18 0.00376039
0.797951 0.118211 7.70372e-34 0.00373166
0.770526 0.239487 -3.08149e-33 0.00384287
0.797951 0.120806 0 0.0037378
0.67013 0.450382 -3.46945e-18 0.00382323
0.797951 0.128874 3.08149e-33 0.00375471
0.467897 0.659208 0 0.00378542
0.756814 0.284867 -3.46945e-18 0.00384419
0.743101 0.320819 -7.70372e-34 0.0038429
0.797951 0.137234 0 0.00377012
0.797951 0.141566 0 0.00377709
0.797951 0.145897 0 0.00378406
0.523729 0.619475 0 0.00379482
0.075776 0.807681 -3.46945e-18 0.00375315
0.797951 0.150387 0 0.00379031
0.797951 0.154876 9.25187e-19 0.00379656
0.715676 0.385557 0 0.00383541
0.412065 0.700877 -2.31298e-18 0.00377865
0.288433 0.76019 0 0.00376606
0.756814 0.29889 0 0.00384544
0.797951 0.16418 0 0.00380766
0.624584 0.523639 3.70071e-18 0.00381422
0.797951 0.167394 7.70372e-34 0.00381091
0.797951 0.173822 0 0.00381742
0.574156 0.582034 0 0.00380355
0.67013 0.470415 0 0.00382401
0.797951 0.183814 -3.08149e-33 0.00382593
0.756814 0.313423 0 0.00384645
0.797951 0.194169 0 0.00383326
0.715676 0.403236 3.70074e-18 0.00383606
0.151552 0.807681 0 0.00375703
0.797951 0.197746 -7.70372e-34 0.00383535
0.350249 0.745097 0 0.00377128
0.797951 0.2049 3.08149e-33 0.00383952
0 0.823889 0 0.00375
0.756813 0.328483 3.46945e-18 0.00384728
0.797951 0.21046 0 0.00384216
0.797951 0.21602 -3.08149e-33 0.0038448
0.797951 0.223703 7.70372e-34 0.00384773
0.797951 0.227544 0 0.0038492
0.624584 0.546332 0 0.00381489
0.715676 0.421557 -9.25187e-19 0.00383672
0.67013 0.491175 3.46945e-18 0.00382477
0.797951 0.231525 7.70372e-34 0.00385041
0.467897 0.686823 0 0.00378584
0.523729 0.645647 0 0.00379528
0.756813 0.344091 0 0.00384798
0.822721 0.120806 7.70372e-34 0.00374183
0.797951 0.239487 -3.08149e-33 0.00385283
0.822721 0.137234 7.70372e-34 0.00377591
0.835106 0.00184055 0 0.000323952
0.835106 0.00558849 0 0.000865059
0.835106 0.00947248 -3.46945e-18 0.0035164
0.835106 0.0134975 -3.46945e-18 0.00506404
0.835106 0.0176687 -3.46945e-18 0.00521839