# kMean  POINT_DATA 63831
# x  y  z  kMean
0 0.5 3.39583e-17 0.00375
0 0.5 -0.00617931 0.00375
0 0.5 0.00617931 0.00375
0.0124865 0.5 0.00617931 0.00375042
0.0124865 0.5 -0.00617931 0.00375038
0 0.5 -0.0688207 0.00375
0 0.5 0.0688207 0.00375
0.0124865 0.5 0.0688207 0.00375042
0.0124865 0.5 -0.0688207 0.00375038
0 0.5 0.075 0.00375
0 0.5 -0.075 0.00375
0 0.5 -0.0811793 0.00375
0 0.5 0.0811793 0.00375
0.0124865 0.5 0.0811793 0.00375047
0.0124865 0.5 -0.0811793 0.00375034
0.075776 0.5 0.0375 0.00375257
0.075776 0.5 -0.0375 0.00375231
0.075776 0.5 0.1125 0.00375286
0.075776 0.5 -0.1125 0.00375211
0 0.5 -0.143821 0.00375
0 0.5 0.143821 0.00375
0.0124865 0.5 0.143821 0.00375047
0.0124865 0.5 -0.143821 0.00375034
0 0.5 0.15 0.00375
0 0.5 -0.15 0.00375
0.151149 0.5 2.20565e-18 0.00375497
0 0.5 -0.156179 0.00375
0 0.5 0.156179 0.00375
0.0124865 0.5 0.156179 0.00375053
0.0124865 0.5 -0.156179 0.00375032
0.151149 0.5 0.075 0.00375542
0.151149 0.5 -0.075 0.00375465
0.075776 0.5 0.1875 0.00375319
0.075776 0.5 -0.1875 0.00375197
0.151149 0.5 0.15 0.00375596
0.151149 0.5 -0.15 0.00375442
0 0.5 -0.218821 0.00375
0 0.5 0.218821 0.00375
0.0124865 0.5 0.218821 0.00375053
0.0124865 0.5 -0.218821 0.00375032
0.219992 0.5 0.0375 0.00375759
0.219992 0.5 -0.0375 0.00375708
0 0.5 0.225 0.00375
0 0.5 -0.225 0.00375
0 0.5 -0.231179 0.00375
0 0.5 0.231179 0.00375
0.0124865 0.5 0.231179 0.00375058
0.0124865 0.5 -0.231179 0.00375031
0.219993 0.5 0.1125 0.00375829
0.219993 0.5 -0.1125 0.00375677
0.151149 0.5 0.225 0.00375656
0.151149 0.5 -0.225 0.0037543
0.075776 0.5 0.2625 0.00375352
0.075776 0.5 -0.2625 0.00375193
0.288069 0.5 3.34766e-17 0.00376218
0.219992 0.5 0.1875 0.00375912
0.219992 0.5 -0.1875 0.00375653
0 0.5 0.293821 0.00375
0 0.5 -0.293821 0.00375
0.0124865 0.5 -0.293821 0.00375031
0.0124865 0.5 0.293821 0.00375058
0.288069 0.5 0.075 0.00376276
0.288069 0.5 -0.075 0.00376176
0 0.5 0.3 0.00375
0 0.5 -0.3 0.00375
0 0.5 0.306179 0.00375
0 0.5 -0.306179 0.00375
0.0124865 0.5 0.306179 0.00375063
0.0124865 0.5 -0.306179 0.00375031
0.288069 0.5 0.15 0.0037635
0.288069 0.5 -0.15 0.00376148
0.151149 0.5 0.3 0.0037572
0.151149 0.5 -0.3 0.00375427
0.219992 0.5 0.2625 0.00376002
0.219992 0.5 -0.2625 0.00375645
0.075776 0.5 0.3375 0.00375384
0.075776 0.5 -0.3375 0.00375191
0.350249 0.5 0.0375 0.00376696
0.350249 0.5 -0.0375 0.00376646
0.288069 0.5 0.225 0.00376439
0.288069 0.5 -0.225 0.00376131
0.350249 0.5 0.1125 0.00376758
0.350249 0.5 -0.1125 0.00376613
0 0.5 0.368821 0.00375
0 0.5 -0.368821 0.00375
0.0124865 0.5 0.368821 0.00375063
0.0124865 0.5 -0.368821 0.00375031
0 0.5 0.375 0.00375
0 0.5 -0.375 0.00375
0 0.5 -0.381179 0.00375
0 0.5 0.381179 0.00375
0.0124865 0.5 0.381179 0.00375068
0.0124865 0.5 -0.381179 0.00375032
0.350249 0.5 0.1875 0.00376841
0.350249 0.5 -0.1875 0.00376588
0.219992 0.5 0.3375 0.00376095
0.219992 0.5 -0.3375 0.00375647
0.151149 0.5 0.375 0.00375783
0.151149 0.5 -0.375 0.00375431
0.411736 0.5 1.70099e-17 0.00377426
0.288069 0.5 0.3 0.00376539
0.288069 0.5 -0.3 0.00376126
0.411736 0.5 0.075 0.00377477
0.411736 0.5 -0.075 0.00377386
0.075776 0.5 0.4125 0.00375413
0.075776 0.5 -0.4125 0.00375194
0.350249 0.5 -0.2625 0.00376576
0.350249 0.5 0.2625 0.00376942
0.411736 0.5 0.15 0.00377539
0.411736 0.5 -0.15 0.00377354
0 0.5 -0.443821 0.00375
0 0.5 0.443821 0.00375
0.0124865 0.5 0.443821 0.00375068
0.0124865 0.5 -0.443821 0.00375032
0 0.5 0.45 0.00375
0 0.5 -0.45 0.00375
0 0.5 -0.456179 0.00375
0 0.5 0.456179 0.00375
0.0124865 0.5 0.456179 0.00375073
0.0124865 0.5 -0.456179 0.00375033
0.219992 0.5 -0.4125 0.0037566
0.219993 0.5 0.4125 0.00376188
0.411736 0.5 0.225 0.00377618
0.411736 0.5 -0.225 0.0037733
0.467897 0.5 0.0375 0.00378157
0.467897 0.5 -0.0375 0.00378114
0.288069 0.5 0.375 0.00376642
0.288069 0.5 -0.375 0.00376131
0.151149 0.5 -0.45 0.00375445
0.151149 0.5 0.45 0.00375843
0.467897 0.5 0.1125 0.00378205
0.467897 0.5 -0.1125 0.00378078
0.350249 0.5 0.3375 0.00377054
0.350249 0.5 -0.3375 0.00376574
0.075776 0.5 -0.4875 0.00375203
0.075776 0.5 0.4875 0.0037544
0.467897 0.5 0.1875 0.00378265
0.467897 0.5 -0.1875 0.00378046
0.411736 0.5 0.3 0.00377712
0.411736 0.5 -0.3 0.00377314
0 0.5 -0.518821 0.00375
0 0.5 0.518821 0.00375
0.0124865 0.5 0.518821 0.00375073
0.0124865 0.5 -0.518821 0.00375033
0.523432 0.5 3.75966e-17 0.00379147
0 0.5 0.525 0.00375
0 0.5 -0.525 0.00375
0.523432 0.5 0.075 0.00379189
0.523432 0.5 -0.075 0.00379104
0 0.5 -0.531179 0.00375
0 0.5 0.531179 0.00375
0.0124865 0.5 0.531179 0.00375076
0.0124865 0.5 -0.531179 0.00375035
0.288069 0.5 0.45 0.00376746
0.288069 0.5 -0.45 0.00376152
0.219992 0.5 -0.4875 0.00375691
0.219992 0.5 0.4875 0.00376276
0.467897 0.5 -0.2625 0.00378019
0.467897 0.5 0.2625 0.00378338
0.350249 0.5 0.4125 0.0037717
0.350249 0.5 -0.4125 0.00376585
0.523432 0.5 0.15 0.00379232
0.523432 0.5 -0.15 0.00379061
0.151149 0.5 0.525 0.00375899
0.151149 0.5 -0.525 0.00375468
0.411736 0.5 0.375 0.00377815
0.411736 0.5 -0.375 0.00377306
0.075776 0.5 0.5625 0.00375463
0.075776 0.5 -0.5625 0.00375215
0.523432 0.5 0.225 0.00379282
0.523432 0.5 -0.225 0.00379018
0.574156 0.5 0.0375 0.00380122
0.574157 0.5 -0.0375 0.00380081
0.467897 0.5 0.3375 0.00378427
0.467897 0.5 -0.3375 0.00377998
0.574156 0.5 0.1125 0.00380157
0.574156 0.5 -0.1125 0.00380032
0 0.5 -0.593821 0.00375
0 0.5 0.593821 0.00375
0.0124865 0.5 0.593821 0.00375076
0.0124865 0.5 -0.593821 0.00375035
0.288069 0.5 0.525 0.00376844
0.288069 0.5 -0.525 0.00376184
0 0.5 0.6 0.00375
0 0.5 -0.6 0.00375
0.350249 0.5 0.4875 0.00377284
0.350249 0.5 -0.4875 0.00376614
0.523432 0.5 -0.3 0.00378975
0.523432 0.5 0.3 0.00379341
0.219992 0.5 0.5625 0.00376357
0.219992 0.5 -0.5625 0.00375727
0.574156 0.5 0.1875 0.0038019
0.574157 0.5 -0.1875 0.00379978
0 0.5 -0.606179 0.00375
0 0.5 0.606179 0.00375
0.0124865 0.5 0.606179 0.00375079
0.0124865 0.5 -0.606179 0.00375038
0.411736 0.5 0.45 0.00377922
0.411736 0.5 -0.45 0.00377311
0.151149 0.5 0.6 0.00375948
0.151149 0.5 -0.6 0.00375494
0.467897 0.5 0.4125 0.00378526
0.467897 0.5 -0.4125 0.00377983
0.624316 0.5 2.64545e-17 0.00381336
0.624316 0.5 0.075 0.00381376
0.624316 0.5 -0.075 0.00381281
0.574156 0.5 -0.2625 0.0037992
0.574157 0.5 0.2625 0.00380225
0.075776 0.5 0.6375 0.00375482
0.075776 0.5 -0.6375 0.0037523
0.624316 0.5 0.15 0.00381402
0.624316 0.5 -0.15 0.00381213
0.523432 0.5 0.375 0.00379411
0.523432 0.5 -0.375 0.00378932
0.350249 0.5 -0.5625 0.00376644
0.350249 0.5 0.5625 0.00377393
0.624316 0.5 0.225 0.0038142
0.624316 0.5 -0.225 0.00381132
0.288069 0.5 0.6 0.00376934
0.288069 0.5 -0.6 0.00376217
0.574157 0.5 0.3375 0.00380267
0.574157 0.5 -0.3375 0.00379857
0.411736 0.5 0.525 0.00378028
0.411736 0.5 -0.525 0.00377321
0 0.5 -0.668821 0.00375
0 0.5 0.668821 0.00375
0.0124865 0.5 0.668821 0.00375079
0.0124865 0.5 -0.668821 0.00375038
0.67013 0.5 0.0375 0.00382533
0.67013 0.5 -0.0375 0.0038248
0.219993 0.5 -0.6375 0.00375767
0.219992 0.5 0.6375 0.00376428
0 0.5 0.675 0.00375
0 0.5 -0.675 0.00375
0.467897 0.5 -0.4875 0.00377978
0.467897 0.5 0.4875 0.00378627
0.67013 0.5 0.1125 0.00382563
0.67013 0.5 -0.1125 0.00382405
0 0.5 -0.681179 0.00375
0 0.5 0.681179 0.00375
0.0124865 0.5 0.681179 0.00375082
0.0124865 0.5 -0.681179 0.0037504
0.523432 0.5 0.45 0.00379486
0.523432 0.5 -0.45 0.0037889
0.151149 0.5 0.675 0.00375989
0.151149 0.5 -0.675 0.00375521
0.624316 0.5 0.3 0.00381434
0.624316 0.5 -0.3 0.0038104
0.67013 0.5 0.1875 0.00382572
0.67013 0.5 -0.1875 0.0038231
0.574156 0.5 0.4125 0.00380318
0.574156 0.5 -0.4125 0.00379785
0.715434 0.5 3.51282e-17 0.00383928
0.075776 0.5 0.7125 0.00375496
0.075776 0.5 -0.7125 0.00375244
0.715434 0.5 0.075 0.00383978
0.715434 0.5 -0.075 0.00383845
0.67013 0.5 0.2625 0.00382567
0.67013 0.5 -0.2625 0.00382198
0.350249 0.5 -0.6375 0.00376673
0.350249 0.5 0.6375 0.00377492
0.411736 0.5 0.6 0.00378127
0.411736 0.5 -0.6 0.00377327
0.624316 0.5 0.375 0.0038145
0.624316 0.5 -0.375 0.00380932
0.715434 0.5 0.15 0.00383995
0.715434 0.5 -0.15 0.00383733
0.467897 0.5 0.5625 0.00378726
0.467897 0.5 -0.5625 0.00377965
0.288069 0.5 0.675 0.00377013
0.288069 0.5 -0.675 0.0037625
0.523432 0.5 0.525 0.00379563
0.523432 0.5 -0.525 0.00378844
0 0.5 -0.743821 0.00375
0 0.5 0.743821 0.00375
0.0124865 0.5 -0.743821 0.0037504
0.0124865 0.5 0.743821 0.00375082
0.219992 0.5 0.7125 0.00376486
0.219992 0.5 -0.7125 0.00375805
0.715434 0.5 0.225 0.00383984
0.715434 0.5 -0.225 0.00383593
0 0.5 0.75 0.00375
0 0.5 -0.75 0.00375
0.67013 0.5 0.3375 0.00382554
0.67013 0.5 -0.3375 0.00382065
0.574157 0.5 0.4875 0.00380373
0.574157 0.5 -0.4875 0.00379713
0 0.5 -0.756179 0.00375
0 0.5 0.756179 0.00375
0.0124865 0.5 0.756179 0.00375083
0.0124865 0.5 -0.756179 0.00375042
0.756813 0.5 0.0375 0.00385321
0.756813 0.5 -0.0375 0.00385241
0.151149 0.5 0.75 0.00376022
0.151149 0.5 -0.75 0.00375547
0.756813 0.5 0.1125 0.00385358
0.756813 0.5 -0.1125 0.00385121
0.624316 0.5 -0.45 0.00380813
0.624316 0.5 0.45 0.00381469
0.715434 0.5 0.3 0.00383952
0.715434 0.5 -0.3 0.00383424
0.756813 0.5 0.1875 0.00385353
0.756813 0.5 -0.1875 0.00384964
0.67013 0.5 -0.4125 0.00381907
0.67013 0.5 0.4125 0.00382541
0.411736 0.5 0.675 0.00378216
0.411736 0.5 -0.675 0.00377327
0.467897 0.5 0.6375 0.00378817
0.467897 0.5 -0.6375 0.00377945
0.075776 0.5 0.7875 0.00375505
0.075776 0.5 -0.7875 0.00375258
0.350249 0.5 0.7125 0.00377578
0.350249 0.5 -0.7125 0.00376697
0.523432 0.5 0.6 0.00379637
0.523432 0.5 -0.6 0.00378787
0.797732 0.5 3.20924e-17 0.0038684
0.756813 0.5 0.2625 0.00385311
0.756814 0.5 -0.2625 0.00384771
0.797732 0.5 0.075 0.00386915
0.797732 0.5 -0.075 0.00386713
0.288069 0.5 0.75 0.00377079
0.288069 0.5 -0.75 0.00376279
0.574156 0.5 -0.5625 0.00379624
0.574156 0.5 0.5625 0.00380428
0.715434 0.5 0.375 0.00383906
0.715434 0.5 -0.375 0.00383225
0.797732 0.5 0.15 0.00386936
0.797732 0.5 -0.15 0.00386536
0.624316 0.5 0.525 0.00381489
0.624316 0.5 -0.525 0.00380679
0.219992 0.5 0.7875 0.00376531
0.219992 0.5 -0.7875 0.00375842
0 0.5 -0.818821 0.00375
0 0.5 0.818821 0.00375
0.0124865 0.5 -0.818821 0.00375042
0.0124865 0.5 0.818821 0.00375083
0 0.5 0.825 0.00375
0 0.5 -0.825 0.00375
0.756813 0.5 -0.3375 0.00384538
0.756813 0.5 0.3375 0.00385243
0.67013 0.5 0.4875 0.00382528
0.67013 0.5 -0.4875 0.00381736
0.797732 0.5 0.225 0.00386904
0.797732 0.5 -0.225 0.00386312
0 0.5 -0.831179 0.00375
0 0.5 0.831179 0.00375
0.0124865 0.5 0.831179 0.00375084
0.0124865 0.5 -0.831179 0.00375045
0.835106 0.5 -0.0375 0.00388271
0.835106 0.5 0.0375 0.00388394
0.151149 0.5 0.825 0.00376045
0.151149 0.5 -0.825 0.00375571
0.835106 0.5 0.1125 0.00388452
0.835106 0.5 -0.1125 0.00388087
0.715434 0.5 0.45 0.00383853
0.715434 0.5 -0.45 0.00383001
0.797732 0.5 0.3 0.00386828
0.797732 0.5 -0.3 0.00386042
0.467897 0.5 0.7125 0.00378898
0.467897 0.5 -0.7125 0.00377915
0.523432 0.5 0.675 0.00379702
0.523432 0.5 -0.675 0.00378718
0.411736 0.5 0.75 0.00378292
0.411736 0.5 -0.75 0.00377319
0.835106 0.5 0.1875 0.00388443
0.835106 0.5 -0.1875 0.00387845
0.574156 0.5 0.6375 0.00380479
0.574156 0.5 -0.6375 0.00379521
0.350249 0.5 -0.7875 0.00376715
0.350249 0.5 0.7875 0.00377648
0.756813 0.5 -0.4125 0.00384272
0.756814 0.5 0.4125 0.00385157
0.075776 0.5 -0.8625 0.00375271
0.075776 0.5 0.8625 0.00375511
0.624316 0.5 0.6 0.00381505
0.624316 0.5 -0.6 0.00380527
0.872064 0.5 4.32235e-17 0.00390024
0.288069 0.5 0.825 0.00377129
0.288069 0.5 -0.825 0.00376303
0.67013 0.5 0.5625 0.00382513
0.67013 0.5 -0.5625 0.00381541
0.872064 0.5 0.075 0.00390138
0.872064 0.5 -0.075 0.00389833
0.835106 0.5 0.2625 0.00388373
0.835106 0.5 -0.2625 0.00387546
0.797732 0.5 0.375 0.00386719
0.797732 0.5 -0.375 0.0038573
0.872064 0.5 0.15 0.00390174
0.872064 0.5 -0.15 0.0038957
0.715434 0.5 0.525 0.00383796
0.715434 0.5 -0.525 0.00382752
0.219992 0.5 0.8625 0.00376564
0.219993 0.5 -0.8625 0.00375873
0 0.5 -0.893821 0.00375
0 0.5 0.893821 0.00375
0.0124865 0.5 0.893821 0.00375084
0.0124865 0.5 -0.893821 0.00375045
0 0.5 0.9 0.00375
0 0.5 -0.9 0.00375
0.756813 0.5 0.4875 0.00385062
0.756813 0.5 -0.4875 0.00383976
0.872064 0.5 0.225 0.00390132
0.872064 0.5 -0.225 0.00389242
0.835106 0.5 0.3375 0.00388252
0.835106 0.5 -0.3375 0.00387195
0 0.5 0.906179 0.00375
0 0.5 -0.906179 0.00375
0.0124865 0.5 0.906179 0.00375085
0.0124865 0.5 -0.906179 0.00375046
0.90582 0.5 -0.0375 0.00391558
0.905821 0.5 0.0375 0.00391741
0.151149 0.5 0.9 0.0037606
0.90582 0.5 0.1125 0.00391832
0.90582 0.5 -0.1125 0.00391288
0.151149 0.5 -0.901373 0.00375595
0.523432 0.5 0.75 0.00379756
0.523432 0.5 -0.75 0.00378639
0.574157 0.5 0.7125 0.0038052
0.574156 0.5 -0.7125 0.00379404
0.797732 0.5 0.45 0.00386587
0.797732 0.5 -0.45 0.00385378
0.467897 0.5 0.7875 0.00378964
0.467897 0.5 -0.7875 0.00377877
0.624316 0.5 0.675 0.00381516
0.624316 0.5 -0.675 0.0038036
0.411736 0.5 0.825 0.00378351
0.411736 0.5 -0.825 0.00377304
0.872064 0.5 0.3 0.00390021
0.872064 0.5 -0.3 0.00388856
0.67013 0.5 0.6375 0.00382493
0.67013 0.5 -0.6375 0.00381326
0.90582 0.5 0.1875 0.00391834
0.90582 0.5 -0.1875 0.00390938
0.350249 0.5 -0.8625 0.00376726
0.350249 0.5 0.8625 0.00377701
0.835106 0.5 0.4125 0.00388091
0.835106 0.5 -0.4125 0.00386801
0.715434 0.5 0.6 0.00383732
0.715434 0.5 -0.6 0.00382478
0.939201 0.5 4.40909e-17 0.00393353
0.075776 0.5 -0.9375 0.00375282
0.075776 0.5 0.9375 0.00375512
0.939201 0.5 0.075 0.00393522
0.939201 0.5 -0.075 0.0039308
0.756814 0.5 0.5625 0.00384959
0.756814 0.5 -0.5625 0.00383649
0.905821 0.5 0.2625 0.00391747
0.905821 0.5 -0.2625 0.00390522
0.288069 0.5 0.9 0.00377164
0.288069 0.5 -0.901373 0.00376324
0.872064 0.5 0.375 0.00389851
0.872064 0.5 -0.375 0.00388415
0.939201 0.5 -0.15 0.0039271
0.939201 0.5 0.15 0.00393584
0.797732 0.5 0.525 0.0038644
0.797732 0.5 -0.525 0.0038499
0.219993 0.5 -0.9375 0.00375899
0.219992 0.5 0.9375 0.00376583
0.939201 0.5 0.225 0.00393541
0.939201 0.5 -0.225 0.00392261
0.90582 0.5 0.3375 0.00391581
0.90582 0.5 -0.3375 0.00390047
0.835106 0.5 -0.4875 0.00386357
0.835107 0.5 0.4875 0.0038791
0 0.5 0.968821 0.00375
0 0.5 -0.968821 0.00375
0.0124865 0.5 0.968821 0.00375085
0.0124865 0.5 -0.968821 0.00375046
0.969689 0.5 0.0375 0.00395129
0.969689 0.5 -0.0375 0.00394868
0.574156 0.5 0.7875 0.0038055
0.574156 0.5 -0.7875 0.00379277
0 0.5 0.975 0.00375
0 0.5 -0.975 0.00375
0.624316 0.5 0.75 0.00381518
0.624316 0.5 -0.75 0.00380179
0.969689 0.5 0.1125 0.00395267
0.96969 0.5 -0.1125 0.00394491
0.523432 0.5 0.825 0.00379796
0.523432 0.5 -0.825 0.0037855
0.67013 0.5 0.7125 0.00382467
0.67013 0.5 -0.7125 0.00381096
0 0.5 -0.981179 0.00375
0 0.5 0.981179 0.00375
0.467897 0.5 0.8625 0.00379013
0.467897 0.5 -0.8625 0.00377829
0.0124865 0.5 0.981179 0.00375084
0.0124865 0.5 -0.981179 0.00375048
0.872064 0.5 0.45 0.00389636
0.872064 0.5 -0.45 0.00387916
0.715434 0.5 0.675 0.00383662
0.715434 0.5 -0.675 0.00382186
0.939201 0.5 0.3 0.003934
0.939201 0.5 -0.3 0.00391745
0.151149 0.5 0.975 0.00376065
0.151149 0.5 -0.975 0.00375608
0.969689 0.5 0.1875 0.00395283
0.969689 0.5 -0.1875 0.00394014
0.756814 0.5 0.6375 0.00384847
0.756814 0.5 -0.6375 0.00383299
0.411736 0.5 0.9 0.00378393
0.411736 0.5 -0.901373 0.00377283
0.90582 0.5 0.4125 0.00391349
0.90582 0.5 -0.4125 0.00389508
0.797732 0.5 0.6 0.00386279
0.797732 0.5 -0.6 0.00384573
1.00005 0.5 1.48897e-17 0.00396594
0.350249 0.5 -0.9375 0.00376728
0.350249 0.5 0.9375 0.00377736
1.00005 0.5 0.0749309 0.00396828
1.00005 0.5 -0.0749309 0.00396236
0.969689 0.5 0.2625 0.00395181
0.969689 0.5 -0.2625 0.00393467
0.835106 0.5 0.5625 0.00387707
0.835106 0.5 -0.5625 0.00385878
1.00005 0.5 0.149862 0.00396934
1.00005 0.5 -0.149862 0.00395768
0.939201 0.5 0.375 0.00393173
0.939201 0.5 -0.375 0.00391152
0.075776 0.5 1.0125 0.00375508
0.075776 0.5 -1.0125 0.0037529
0.288069 0.5 0.975 0.00377183
0.288069 0.5 -0.975 0.0037633
0.872064 0.5 0.525 0.00389392
0.872064 0.5 -0.525 0.00387366
1.00005 0.5 0.224793 0.00396915
1.00005 0.5 -0.224793 0.00395216
0.96969 0.5 0.3375 0.00394972
0.96969 0.5 -0.3375 0.00392844
1.0271 0.5 0.0368226 0.00398507
1.0271 0.5 -0.0368226 0.00398169
0.90582 0.5 0.4875 0.00391069
0.90582 0.5 -0.4875 0.00388894
1.0271 0.5 0.110468 0.00398712
1.0271 0.5 -0.110468 0.00397712
0.67013 0.5 -0.7875 0.00380853
0.67013 0.5 0.7875 0.00382432
0.624316 0.5 0.825 0.00381508
0.624316 0.5 -0.825 0.00379988
0.219992 0.5 -1.0125 0.00375919
0.219993 0.5 1.0125 0.00376586
0.574156 0.5 0.8625 0.00380566
0.574156 0.5 -0.8625 0.00379139
0.715434 0.5 0.75 0.00383584
0.715434 0.5 -0.75 0.00381879
0.756813 0.5 -0.7125 0.00382931
0.756814 0.5 0.7125 0.00384728
0.523432 0.5 0.9 0.00379818
0.939201 0.5 0.45 0.00392877
0.939201 0.5 -0.45 0.00390475
1.04168 0.5 0 0.00399242
0.523432 0.5 -0.901373 0.00378453
1.0271 0.5 0.184113 0.00398787
1.0271 0.5 -0.184113 0.0039716
0 0.5 1.04382 0.00375
0 0.5 -1.04382 0.00375
0.0124865 0.5 1.04382 0.00375084
0.0124865 0.5 -1.04382 0.00375048
1.00005 0.5 0.299723 0.00396766
1.00005 0.5 -0.299723 0.00394582
1.04168 0.5 0.0729162 0.00399535
1.04168 0.5 -0.0729162 0.00398822
0.797732 0.5 0.675 0.00386107
0.797732 0.5 -0.675 0.00384135
0.467897 0.5 -0.9375 0.00377771
0.467897 0.5 0.9375 0.00379042
0 0.5 1.05 0.00375
0 0.5 -1.05 0.00375
0.835106 0.5 0.6375 0.00387486
0.835106 0.5 -0.6375 0.00385372
1.04168 0.5 0.145832 0.00399694
1.04168 0.5 -0.145832 0.00398298
0.969689 0.5 -0.4125 0.00392115
0.96969 0.5 0.4125 0.00394674
0 0.5 1.05618 0.00375
0 0.5 -1.05618 0.00375
0.0124865 0.5 1.05618 0.00375083
0.0124865 0.5 -1.05618 0.00375049
1.05695 0.5 -0.0360764 0.00399958
1.05695 0.5 0.0360764 0.00400342
0.411736 0.5 0.975 0.00378415
0.411736 0.5 -0.975 0.00377247
0.872064 0.5 0.6 0.00389125
0.872064 0.5 -0.6 0.00386784
1.0271 0.5 0.257759 0.0039873
1.0271 0.5 -0.257759 0.00396529
0.151149 0.5 -1.05 0.0037562
0.151149 0.5 1.05 0.0037606
1.05695 0.5 0.108229 0.00400587
1.05695 0.5 -0.108229 0.00399461
1.04168 0.5 0.218749 0.00399724
1.04168 0.5 -0.218749 0.00397687
0.90582 0.5 0.5625 0.00390759
0.90582 0.5 -0.5625 0.0038824
1.00005 0.5 0.374654 0.00396497
1.00005 0.5 -0.374654 0.00393836
0.350249 0.5 1.0125 0.00377753
0.350249 0.5 -1.0125 0.00376722
1.05695 0.5 0.180382 0.00400701
1.05695 0.5 -0.180382 0.00398872
0.939201 0.5 0.525 0.00392533
0.939201 0.5 -0.525 0.0038974
1.0271 0.5 -0.331404 0.00395795
1.0271 0.5 0.331404 0.00398524
1.08112 0.5 3.20924e-17 0.00401748
1.04168 0.5 0.291665 0.00399612
1.04168 0.5 -0.291665 0.00396984
1.08112 0.5 0.0709442 0.004021
1.08112 0.5 -0.0709442 0.00401271
0.96969 0.5 0.4875 0.00394302
0.96969 0.5 -0.4875 0.00391294
1.05695 0.5 0.252535 0.00400686
1.05695 0.5 -0.252535 0.00398201
0.288069 0.5 1.05 0.00377185
0.288069 0.5 -1.05 0.00376332
0.075776 0.5 -1.0875 0.00375296
0.075776 0.5 1.0875 0.003755
1.08112 0.5 0.141888 0.00402315
1.08112 0.5 -0.141888 0.00400694
0.715434 0.5 0.825 0.00383496
0.715434 0.5 -0.825 0.00381563
0.756814 0.5 0.7875 0.003846
0.756814 0.5 -0.7875 0.00382552
0.67013 0.5 0.8625 0.00382385
0.67013 0.5 -0.8625 0.00380602
0.797732 0.5 0.75 0.00385927
0.797732 0.5 -0.75 0.00383683
0.624316 0.5 0.9 0.00381484
1.00005 0.5 0.449585 0.00396129
1.00005 0.5 -0.449585 0.00392976
0.624316 0.5 -0.901373 0.00379787
0.835106 0.5 0.7125 0.00387254
0.835106 0.5 -0.7125 0.0038485
0.574156 0.5 -0.9375 0.00378993
0.574156 0.5 0.9375 0.00380564
1.10076 0.5 0.0349809 0.00403291
1.10076 0.5 -0.0349809 0.00402838
1.08112 0.5 0.212832 0.00402399
1.08112 0.5 -0.212832 0.00400029
0.872064 0.5 0.675 0.00388838
0.872064 0.5 -0.675 0.00386179
1.04168 0.5 -0.364581 0.00396147
1.04168 0.5 0.364581 0.00399353
1.0271 0.5 -0.405049 0.00394913
1.0271 0.5 0.405049 0.00398188
1.05695 0.5 0.324688 0.00400516
1.05695 0.5 -0.324688 0.00397415
1.10076 0.5 -0.104943 0.0040228
1.10076 0.5 0.104943 0.00403604
0.523432 0.5 0.975 0.00379822
0.523432 0.5 -0.975 0.00378344
0.90582 0.5 0.6375 0.00390427
0.90582 0.5 -0.6375 0.00387557
0.219992 0.5 1.0875 0.00376574
0.219992 0.5 -1.0875 0.00375931
1.11376 0.5 1.15648e-18 0.00403961
0.939201 0.5 0.6 0.00392146
0.939201 0.5 -0.6 0.00388977
1.10076 0.5 0.174905 0.0040378
1.10076 0.5 -0.174905 0.00401634
0.467897 0.5 -1.0125 0.00377704
0.467897 0.5 1.0125 0.00379052
1.11376 0.5 0.0693118 0.00404365
1.11376 0.5 -0.0693118 0.00403436
1.08112 0.5 0.283777 0.00402343
1.08112 0.5 -0.285603 0.00399214
0 0.5 -1.11882 0.00375
0 0.5 1.11882 0.00375
0.0124865 0.5 1.11882 0.00375083
0.0124865 0.5 -1.11882 0.00375049
0.969689 0.5 0.5625 0.00393889
0.969689 0.5 -0.5625 0.00390451
1.11376 0.5 0.138624 0.0040463
1.11376 0.5 -0.138624 0.00402814
0 0.5 1.125 0.00375
0 0.5 -1.125 0.00375
1.10076 0.5 0.244866 0.0040383
1.10076 0.5 -0.244866 0.00400893
0.411736 0.5 -1.05 0.00377205
0.411736 0.5 1.05 0.00378421
1.05695 0.5 -0.396841 0.00396354
1.05695 0.5 0.396841 0.00400202
1.00005 0.5 0.524516 0.00395692
1.00005 0.5 -0.525427 0.00392036
1.04168 0.5 -0.437497 0.00395186
1.04168 0.5 0.437497 0.00398969
0 0.5 1.13118 0.00375
0 0.5 -1.13118 0.00375
0.0124865 0.5 -1.13118 0.0037505
0.0124865 0.5 1.13118 0.00375081
1.11376 0.5 0.207935 0.00404763
1.0271 0.5 -0.478694 0.00393932
1.0271 0.5 0.478694 0.00397747
1.11376 0.5 -0.213207 0.00402097
1.07791 0.5 -0.354722 0.00398139
0.151149 0.5 1.125 0.00376045
0.151149 0.5 -1.125 0.00375627
1.08112 0.5 0.354722 0.00402135
1.13882 0.5 0.0340295 0.00405981
1.13882 0.5 -0.0340295 0.00405469
0.350249 0.5 1.0875 0.00377753
0.350249 0.5 -1.0875 0.00376706
1.13882 0.5 0.102088 0.00406358
1.13882 0.5 -0.102088 0.00404855
1.10076 0.5 0.314829 0.0040373
1.10076 0.5 -0.314829 0.00400021
0.756813 0.5 -0.8625 0.00382167
0.756814 0.5 0.8625 0.00384464
0.797732 0.5 0.825 0.00385739
0.797732 0.5 -0.825 0.00383223
1.11376 0.5 -0.277247 0.00401307
1.11376 0.5 0.277247 0.00404758
0.835106 0.5 0.7875 0.00387017
0.835106 0.5 -0.7875 0.00384318
0.715434 0.5 0.9 0.00383398
0.872064 0.5 0.75 0.00388535
0.872064 0.5 -0.75 0.00385561
0.715434 0.5 -0.901373 0.00381236
1.13882 0.5 -0.170147 0.00404148
1.13882 0.5 0.170147 0.00406595
0.67013 0.5 -0.9375 0.00380345
0.67013 0.5 0.9375 0.00382325
0.90582 0.5 0.7125 0.00390069
0.90582 0.5 -0.7125 0.00386855
1.05695 0.5 -0.468994 0.00395273
1.05695 0.5 0.468994 0.00399766
0.939201 0.5 0.675 0.00391728
0.939201 0.5 -0.675 0.00388196
0.624316 0.5 0.975 0.00381442
0.624316 0.5 -0.975 0.00379582
1.04168 0.5 -0.510414 0.00394169
1.04168 0.5 0.510414 0.00398486
0.969689 0.5 0.6375 0.00393402
0.969689 0.5 -0.6375 0.00389586
0.288069 0.5 1.125 0.00377169
0.288069 0.5 -1.125 0.00376326
1.16179 0.5 1.04083e-17 0.00407458
1.08112 0.5 -0.425666 0.00397327
1.08112 0.5 0.425666 0.00401785
1.13882 0.5 -0.238206 0.00403172
1.13882 0.5 0.238206 0.004067
1.16179 0.5 0.0669104 0.00407944
1.16179 0.5 -0.0669104 0.00406856
0.574156 0.5 -1.0125 0.00378839
0.574156 0.5 1.0125 0.00380542
0.998291 0.5 -0.599796 0.00391009
0.075776 0.5 -1.1625 0.003753
0.075776 0.5 1.1625 0.00375487
1.00005 0.5 0.599447 0.00395188
1.10076 0.5 -0.384791 0.00399004
1.10076 0.5 0.384791 0.00403473
1.0271 0.5 0.55234 0.00397236
1.0271 0.5 -0.55234 0.00393327
1.11376 0.5 -0.346559 0.00400296
1.11376 0.5 0.346559 0.00404601
1.16179 0.5 0.133821 0.00408292
1.16179 0.5 -0.133821 0.00406121
0.523432 0.5 -1.05 0.00378228
0.523432 0.5 1.05 0.0037981
1.17463 0.5 0.0331343 0.00408639
1.17463 0.5 -0.0331343 0.00408068
1.15837 0.5 -0.200731 0.00405153
1.17463 0.5 0.0994029 0.00409079
1.17463 0.5 -0.0994029 0.00407397
1.16179 0.5 0.200074 0.00408475
1.13882 0.5 -0.306265 0.00402381
1.13882 0.5 0.306265 0.00406664
0.219992 0.5 1.1625 0.00376546
0.219992 0.5 -1.1625 0.00375936
0.467897 0.5 -1.0875 0.00377629
0.467897 0.5 1.0875 0.0037905
1.17463 0.5 0.165672 0.00409375
1.17463 0.5 -0.165672 0.00406627
1.05695 0.5 0.541147 0.00399229
1.05695 0.5 -0.541147 0.00394397
1.18772 0.5 -1.15648e-18 0.00409348
1.11376 0.5 -0.41587 0.00399227
1.11376 0.5 0.41587 0.00404293
1.18772 0.5 0.0655187 0.00409877
1.08112 0.5 0.49661 0.00401306
1.08112 0.5 -0.49661 0.00396256
1.18772 0.5 -0.0699161 0.00408704
1.10076 0.5 -0.454752 0.0039792
1.10076 0.5 0.454752 0.00403075
1.16179 0.5 0.267642 0.00408491
1.16179 0.5 -0.267642 0.00404413
0 0.5 1.19382 0.00375
0 0.5 -1.19382 0.00375
0.0124865 0.5 -1.19382 0.0037505
0.0124865 0.5 1.19382 0.00375081
1.04168 0.5 -0.58333 0.00393128
1.04168 0.5 0.58333 0.00397915
1.18772 0.5 0.131228 0.00410223
1.18772 0.5 -0.131228 0.00408003
1.17463 0.5 0.23194 0.00409534
1.17463 0.5 -0.23194 0.00405737
0.411736 0.5 1.125 0.00378408
0.411736 0.5 -1.125 0.00377154
1.13882 0.5 0.374324 0.0040647
1.13882 0.5 -0.374324 0.00401306
0 0.5 1.2 0.00375
0 0.5 -1.2 0.00375
0.90582 0.5 0.7875 0.00389689
0.90582 0.5 -0.7875 0.00386146
0.872064 0.5 0.825 0.00388222
0.872064 0.5 -0.825 0.0038494
0.835106 0.5 -0.8625 0.00383782
0.835106 0.5 0.8625 0.00386771
1.18534 0.5 0.196842 0.00410345
0.939201 0.5 0.75 0.00391297
0.939201 0.5 -0.75 0.00387412
0.797732 0.5 0.9 0.00385543
1.0271 0.5 -0.625985 0.00391913
1.0271 0.5 0.625985 0.00396644
0.969689 0.5 0.7125 0.00392912
0.96969 0.5 -0.7125 0.0038872
0.797732 0.5 -0.901373 0.00382752
1.18772 0.5 -0.196842 0.00407119
0.756813 0.5 -0.9375 0.00381779
0.756813 0.5 0.9375 0.0038432
0.998291 0.5 -0.67477 0.00390073
1.15863 0.5 0.334552 0.00408243
0 0.5 1.20618 0.00375
0 0.5 -1.20618 0.00375
1.00005 0.5 0.674378 0.00394639
0.0124865 0.5 -1.20618 0.0037505
0.0124865 0.5 1.20618 0.00375078
1.16179 0.5 -0.334552 0.00403352
0.715434 0.5 0.975 0.00383287
0.715434 0.5 -0.975 0.00380915
0.151149 0.5 1.2 0.0037602
0.151149 0.5 -1.2 0.00375629
1.20942 0.5 -0.0322645 0.00410693
1.20942 0.5 0.0322645 0.00411322
1.18534 0.5 0.249669 0.00410448
1.17463 0.5 0.298209 0.00409557
1.17463 0.5 -0.298209 0.00404708
1.20942 0.5 0.0967935 0.00411825
1.20942 0.5 -0.0967935 0.0040996
0.350249 0.5 1.1625 0.00377727
0.350249 0.5 -1.1625 0.00376681
0.67013 0.5 1.0125 0.00382247
0.67013 0.5 -1.0125 0.00380082
1.11376 0.5 -0.485183 0.00398115
1.11376 0.5 0.485183 0.0040384
1.18772 0.5 -0.262456 0.00406129
1.10076 0.5 -0.524714 0.00396813
1.10076 0.5 0.524714 0.00402538
1.20942 0.5 0.161322 0.00412261
1.20942 0.5 -0.161322 0.00409186
1.08112 0.5 -0.567554 0.00395148
1.08112 0.5 0.567554 0.00400704
0.624316 0.5 1.05 0.00381387
0.624316 0.5 -1.05 0.00379369
1.13882 0.5 0.442383 0.00406123
1.13882 0.5 -0.442383 0.00400174
1.05695 0.5 -0.6133 0.00393307
1.05695 0.5 0.6133 0.00398594
1.15863 0.5 0.401463 0.00408007
1.16179 0.5 -0.401463 0.00402208
0.574156 0.5 1.0875 0.00380511
0.574157 0.5 -1.0875 0.00378678
1.17463 0.5 0.364477 0.00409424
1.17463 0.5 -0.364477 0.0040357
1.20942 0.5 0.225851 0.00412477
1.20942 0.5 -0.225851 0.00408213
1.23036 0.5 -1.38778e-17 0.00412859
1.04168 0.5 -0.656246 0.00392067
1.04168 0.5 0.656246 0.00397274
1.23036 0.5 -0.0634819 0.00412073
1.23036 0.5 0.0634819 0.0041347
1.18772 0.5 0.32807 0.0041062
1.18772 0.5 -0.32807 0.00405019
0.288069 0.5 1.2 0.00377133
0.288069 0.5 -1.2 0.00376312
1.23036 0.5 0.126964 0.00413945
1.23036 0.5 -0.126964 0.00411291
0.075776 0.5 -1.2375 0.00375302
0.075776 0.5 1.2375 0.00375471
0.523432 0.5 1.125 0.00379782
0.523432 0.5 -1.125 0.00378104
1.0271 0.5 -0.69963 0.00390889
1.0271 0.5 0.69963 0.00396021
1.24274 0.5 -0.0314313 0.00413516
1.24274 0.5 0.0314313 0.00414211
1.20942 0.5 0.29038 0.00412555
1.20942 0.5 -0.29038 0.00407107
1.11376 0.5 -0.554494 0.00396962
1.11376 0.5 0.554494 0.00403238
1.23036 0.5 0.190445 0.00414274
1.23036 0.5 -0.190445 0.00410327
1.24274 0.5 0.0942942 0.00414781
1.24274 0.5 -0.0942942 0.00412711
1.13882 0.5 -0.510442 0.00399015
1.13882 0.5 0.510442 0.00405625
0.998291 0.5 -0.749744 0.00389143
0.969689 0.5 0.7875 0.00392419
0.969689 0.5 -0.7875 0.00387865
1.00005 0.5 0.749309 0.00394087
1.15863 0.5 0.468373 0.00407615
0.939201 0.5 0.825 0.00390851
0.939201 0.5 -0.825 0.0038663
1.2484 0.5 -0.0653061 0.0041363
0.90582 0.5 0.8625 0.00389309
0.90582 0.5 -0.8625 0.00385448
1.17463 0.5 -0.430746 0.00402385
1.17463 0.5 0.430746 0.00409129
1.10076 0.5 -0.594676 0.00395649
1.10076 0.5 0.594676 0.00401859
1.18772 0.5 0.393684 0.00410428
1.18772 0.5 -0.393684 0.00403836
1.24274 0.5 -0.157157 0.00411785
1.24274 0.5 0.157157 0.00415204
1.16179 0.5 -0.468373 0.00401029
0.467897 0.5 -1.1625 0.00377544
0.467897 0.5 1.1625 0.00379024
0.872064 0.5 0.9 0.00387907
1.25401 0.5 0 0.00414783
0.872064 0.5 -0.901373 0.00384311
1.24906 0.5 -0.125094 0.00412823
0.835106 0.5 0.9375 0.0038652
0.835106 0.5 -0.9375 0.00383249
1.25401 0.5 0.0622994 0.00415439
1.08112 0.5 -0.638498 0.0039399
1.08112 0.5 0.638498 0.00399996
1.23036 0.5 0.253927 0.00414459
1.23036 0.5 -0.253927 0.00409233
0.219992 0.5 1.2375 0.00376505
0.219992 0.5 -1.2375 0.00375935
1.05695 0.5 -0.685452 0.00392197
1.05695 0.5 0.685452 0.00397896
0.797732 0.5 0.975 0.00385339
0.797732 0.5 -0.975 0.00382302
1.25401 0.5 0.124599 0.00415958
1.20942 0.5 0.354909 0.00412481
1.20942 0.5 -0.354909 0.00405906
1.24274 0.5 0.220019 0.00415479
1.24274 0.5 -0.220019 0.00410725
1.24906 0.5 -0.187641 0.00411811
0.756813 0.5 -1.0125 0.0038139
0.756813 0.5 1.0125 0.00384162
1.25401 0.5 0.186898 0.00416329
0.411736 0.5 1.2 0.00378369
0.411736 0.5 -1.2 0.00377093
0 0.5 1.26882 0.00375
0 0.5 -1.26882 0.00375
0.0124865 0.5 -1.26882 0.0037505
0.0124865 0.5 1.26882 0.00375078
0.715434 0.5 -1.05 0.00380588
0.715434 0.5 1.05 0.00383164
1.23036 0.5 0.31741 0.00414498
1.23036 0.5 -0.31741 0.00408032
1.04168 0.5 -0.729162 0.00391006
1.04168 0.5 0.729162 0.00396614
1.18772 0.5 -0.459298 0.00402618
1.18772 0.5 0.459298 0.00410075
1.24274 0.5 0.282882 0.0041561
1.24274 0.5 -0.282882 0.00409541
0 0.5 1.275 0.00375
0 0.5 -1.275 0.00375
1.27472 0.5 -0.0306319 0.00416334
1.27472 0.5 0.0306319 0.00417098
1.17463 0.5 -0.497015 0.00401177
1.17463 0.5 0.497015 0.0040868
1.15837 0.5 0.534151 0.00407085
1.11376 0.5 0.62266 0.00402462
1.11376 0.5 -0.623806 0.00395741
1.13882 0.5 -0.578501 0.00397798
1.13882 0.5 0.578501 0.00404669
0.67013 0.5 1.0875 0.0038216
0.67013 0.5 -1.0875 0.00379815
1.27472 0.5 -0.0918959 0.00415362
1.27472 0.5 0.0918959 0.00417735
1.25401 0.5 -0.249197 0.00410887
1.25401 0.5 0.249197 0.00416552
1.16179 0.5 -0.535284 0.00399808
1.20942 0.5 0.419438 0.00412243
1.20942 0.5 -0.419438 0.00404665
0 0.5 1.28118 0.00375
0 0.5 -1.28118 0.00375
0.0124865 0.5 1.28118 0.00375075
0.0124865 0.5 -1.28118 0.0037505
1.27472 0.5 0.15316 0.00418223