# nutMean  POINT_DATA 63140
# x  y  z  nutMean
0 0.1 0 0.00538112
0 0.1 -0.0179898 0.00538286
0 0.1 0.0179898 0.00537877
0.0363518 0.1 -0.0179898 0.013783
0.0363518 0.1 0.0179898 0.0125189
0 0.1 -0.0570102 0.00539215
0 0.1 0.0570102 0.00537516
0.0363518 0.1 0.0570102 0.0125153
0.0363518 0.1 -0.0570102 0.0137923
0 0.1 0.075 0.00537464
0 0.1 -0.075 0.00539869
0.075776 0.1 -0.0375 0.0226427
0.075776 0.1 0.0375 0.020094
0 0.1 0.0929898 0.00537354
0 0.1 -0.0929898 0.00540435
0.0363518 0.1 0.0929898 0.0114227
0.0363518 0.1 -0.0929898 0.0146925
0 0.1 0.13201 0.00537203
0 0.1 -0.13201 0.00542263
0.075776 0.1 0.1125 0.0178723
0.075776 0.1 -0.1125 0.0244403
0.0363518 0.1 0.13201 0.0114212
0.0363518 0.1 -0.13201 0.0147108
0 0.1 0.15 0.00537214
0 0.1 -0.15 0.00543436
0.150379 0.1 -8.67362e-19 0.0184065
0.150379 0.1 0.0710023 0.017373
0 0.1 0.16799 0.0053718
0 0.1 -0.16799 0.00544489
0.150379 0.1 -0.075 0.0194716
0.0363518 0.1 0.16799 0.0104801
0.0363518 0.1 -0.16799 0.014754
0.075776 0.1 0.1875 0.0159499
0.075776 0.1 -0.1875 0.0245152
0 0.1 0.20701 0.00537427
0 0.1 -0.20701 0.00547414
0.0363518 0.1 0.20701 0.0104826
0.0363518 0.1 -0.20701 0.0147832
0.150379 0.1 -0.15 0.0199361
0.150379 0.1 0.15 0.0161999
0.219992 0.1 -0.0375 0.0155705
0.219992 0.1 0.0375 0.0155673
0 0.1 0.225 0.00537728
0 0.1 -0.225 0.00549165
0 0.1 0.24299 0.00538029
0 0.1 -0.24299 0.00550825
0.0363518 0.1 0.24299 0.00968224
0.0363518 0.1 -0.24299 0.014226
0.219992 0.1 0.1125 0.015569
0.219993 0.1 -0.1125 0.0155787
0.150379 0.1 -0.225 0.019684
0.150379 0.1 0.225 0.0148643
0.075776 0.1 -0.2625 0.0233574
0.075776 0.1 0.2625 0.0143044
0 0.1 -0.28201 0.0055524
0 0.1 0.28201 0.0053866
0.0363518 0.1 -0.28201 0.0142702
0.0363518 0.1 0.28201 0.00968854
0.287374 0.1 0 0.0129295
0.219992 0.1 -0.1875 0.0155996
0.219993 0.1 0.1875 0.0154701
0.287374 0.1 0.0710023 0.012956
0.287374 0.1 -0.075 0.0129791
0 0.1 0.3 0.00538997
0 0.1 -0.3 0.00557814
0 0.1 0.31799 0.00539382
0 0.1 -0.31799 0.00560351
0.0363518 0.1 0.31799 0.00906049
0.0363518 0.1 -0.31799 0.0133432
0.287374 0.1 0.15 0.0128194
0.287374 0.1 -0.15 0.0130217
0.150379 0.1 -0.3 0.0189445
0.150379 0.1 0.3 0.0134275
0.219993 0.1 -0.2625 0.0156224
0.219993 0.1 0.2625 0.0137541
0.075776 0.1 0.3375 0.0130116
0.075776 0.1 -0.3375 0.0214817
0.350249 0.1 0.0375 0.0103457
0.350249 0.1 -0.0375 0.0104432
0 0.1 -0.35701 0.00565536
0 0.1 0.35701 0.00539695
0.0363518 0.1 0.35701 0.00906362
0.0363518 0.1 -0.35701 0.0133951
0.287374 0.1 0.225 0.0122791
0.287374 0.1 -0.225 0.0130414
0.350249 0.1 0.1125 0.010299
0.350249 0.1 -0.1125 0.0105315
0 0.1 0.375 0.00539686
0 0.1 -0.375 0.00568077
0 0.1 -0.39299 0.00570645
0 0.1 0.39299 0.00539716
0.0363518 0.1 -0.39299 0.012177
0.0363518 0.1 0.39299 0.00863319
0.350249 0.1 -0.1875 0.0105842
0.350249 0.1 0.1875 0.0101559
0.219992 0.1 0.3375 0.0126504
0.219993 0.1 -0.3375 0.0156008
0.150379 0.1 0.375 0.0124827
0.150379 0.1 -0.375 0.0177086
0.411108 0.1 0 0.0086875
0.287374 0.1 0.3 0.0114887
0.287374 0.1 -0.3 0.0130459
0.411108 0.1 0.0710023 0.00868623
0.411108 0.1 -0.075 0.00874914
0.075776 0.1 0.4125 0.012125
0.075776 0.1 -0.4125 0.0190315
0 0.1 0.43201 0.00539036
0 0.1 -0.43201 0.00574681
0.0363518 0.1 0.43201 0.0086264
0.0363518 0.1 -0.43201 0.0122173
0.411108 0.1 -0.15 0.00880882
0.411108 0.1 0.15 0.00860477
0.350249 0.1 -0.2625 0.0105664
0.350249 0.1 0.2625 0.00992819
0 0.1 0.45 0.00538447
0 0.1 -0.45 0.00576211
0.219992 0.1 -0.4125 0.014939
0.219992 0.1 0.4125 0.0121429
0 0.1 0.46799 0.00537862
0 0.1 -0.46799 0.00577798
0.411108 0.1 0.225 0.00853038
0.411108 0.1 -0.225 0.00884782
0.467897 0.1 -0.0375 0.0070604
0.467897 0.1 0.0375 0.00703966
0.0363518 0.1 0.46799 0.0084232
0.0363518 0.1 -0.46799 0.011211
0.287374 0.1 0.375 0.0110458
0.287374 0.1 -0.375 0.0128356
0.150379 0.1 0.45 0.0120249
0.150379 0.1 -0.45 0.0163145
0.467897 0.1 0.1125 0.00704048
0.467897 0.1 -0.1125 0.00710392
0.350249 0.1 0.3375 0.0097643
0.350249 0.1 -0.3375 0.0106005
0.075776 0.1 -0.4875 0.017008
0.075776 0.1 0.4875 0.0117074
0.467897 0.1 0.1875 0.00705359
0.467897 0.1 -0.1875 0.00715967
0 0.1 0.50701 0.00536311
0 0.1 -0.50701 0.0057991
0.0363518 0.1 -0.50701 0.0112321
0.0363518 0.1 0.50701 0.00840769
0.411108 0.1 0.3 0.00845425
0.411108 0.1 -0.3 0.00890328
0.522865 0.1 -9.1073e-18 0.00610532
0 0.1 0.525 0.00535479
0 0.1 -0.525 0.00580585
0.522865 0.1 0.0710023 0.00612179
0.522865 0.1 -0.075 0.00613134
0.287374 0.1 0.45 0.0109276
0.287374 0.1 -0.45 0.0124876
0.219992 0.1 -0.4875 0.014438
0.219992 0.1 0.4875 0.0121075
0.467897 0.1 0.2625 0.00710323
0.467897 0.1 -0.2625 0.00722322
0.350249 0.1 -0.4125 0.0104146
0.350249 0.1 0.4125 0.00973923
0 0.1 0.54299 0.00534624
0 0.1 -0.54299 0.00581279
0.522865 0.1 -0.15 0.00617761
0.522865 0.1 0.15 0.00612053
0.0363518 0.1 0.54299 0.00825175
0.0363518 0.1 -0.54299 0.0105761
0.150379 0.1 -0.525 0.0153472
0.150379 0.1 0.525 0.0121053
0.411108 0.1 0.375 0.00843146
0.411108 0.1 -0.375 0.00891627
0.075776 0.1 0.5625 0.0113882
0.075776 0.1 -0.5625 0.0156797
0.522865 0.1 0.225 0.00616093
0.522865 0.1 -0.225 0.00623958
0.574156 0.1 0.0375 0.00519247
0.574157 0.1 -0.0375 0.00519991
0.467897 0.1 -0.3375 0.00736122
0.467897 0.1 0.3375 0.00713037
0 0.1 0.58201 0.00532714
0 0.1 -0.58201 0.00581624
0.0363518 0.1 0.58201 0.00823265
0.0363518 0.1 -0.58201 0.0105795
0.574156 0.1 0.1125 0.00520935
0.574156 0.1 -0.1125 0.00523277
0.287374 0.1 0.525 0.0112354
0.287374 0.1 -0.525 0.0123594
0 0.1 0.6 0.00531791
0 0.1 -0.6 0.00581416
0.350249 0.1 0.4875 0.00982396
0.350249 0.1 -0.4875 0.0103702
0.522865 0.1 -0.3 0.00633632
0.522865 0.1 0.3 0.00621429
0.219992 0.1 0.5625 0.0131642
0.219992 0.1 -0.5625 0.0143552
0.574156 0.1 0.1875 0.00524843
0.574157 0.1 -0.1875 0.00528598
0.411108 0.1 0.45 0.00849415
0.411108 0.1 -0.45 0.00890207
0 0.1 0.61799 0.00530814
0 0.1 -0.61799 0.00581172
0.150379 0.1 0.6 0.0122388
0.150379 0.1 -0.6 0.0147531
0.0363518 0.1 -0.61799 0.0101984
0.0363518 0.1 0.61799 0.00810925
0.623413 0.1 0 0.00463615
0.467897 0.1 0.4125 0.00719616
0.467897 0.1 -0.4125 0.00741993
0.623803 0.1 0.0710023 0.00465073
0.623803 0.1 -0.075 0.00465576
0.574156 0.1 0.2625 0.00530743
0.574157 0.1 -0.2625 0.0053611
0.623803 0.1 -0.15 0.00469749
0.623803 0.1 0.15 0.00466771
0.075776 0.1 0.6375 0.0111344
0.075776 0.1 -0.6375 0.0148997
0.522865 0.1 -0.375 0.00644047
0.522865 0.1 0.375 0.00627911
0 0.1 0.65701 0.00529037
0 0.1 -0.65701 0.00579989
0.0363518 0.1 0.65701 0.00809148
0.0363518 0.1 -0.65701 0.0101865
0.350249 0.1 0.5625 0.00997004
0.350249 0.1 -0.5625 0.0104728
0.623803 0.1 0.225 0.00471598
0.623803 0.1 -0.225 0.00475978
0.287374 0.1 0.6 0.0115642
0.287374 0.1 -0.6 0.0123529
0.574156 0.1 0.3375 0.00538384
0.574157 0.1 -0.3375 0.00547166
0.411108 0.1 0.525 0.00863324
0.411108 0.1 -0.525 0.00898742
0.67013 0.1 0.0375 0.00409161
0.67013 0.1 -0.0375 0.00409964
0.219993 0.1 0.6375 0.0131785
0.219993 0.1 -0.6375 0.0141253
0 0.1 0.675 0.00528346
0 0.1 -0.675 0.005792
0.467897 0.1 0.4875 0.0073205
0.467897 0.1 -0.4875 0.00752781
0.67013 0.1 0.1125 0.00410719
0.67013 0.1 -0.1125 0.00412979
0.522865 0.1 -0.45 0.00654475
0.522865 0.1 0.45 0.00637846
0.150379 0.1 0.675 0.012061
0.150379 0.1 -0.675 0.0145623
0.623803 0.1 0.3 0.00478312
0.623803 0.1 -0.3 0.00484645
0 0.1 -0.69299 0.00578323
0 0.1 0.69299 0.00527588
0.0363518 0.1 0.69299 0.00799028
0.0363518 0.1 -0.69299 0.00993682
0.67013 0.1 0.1875 0.00414496
0.67013 0.1 -0.1875 0.00418053
0.574156 0.1 0.4125 0.00547238
0.574157 0.1 -0.4125 0.00558049
0.714619 0.1 4.77049e-18 0.00373028
0.075776 0.1 0.7125 0.0109252
0.075776 0.1 -0.7125 0.0143908
0.714971 0.1 0.0710023 0.0037385
0.714971 0.1 -0.075 0.00375016
0.67013 0.1 0.2625 0.00420218
0.67013 0.1 -0.2625 0.00425069
0.411108 0.1 0.6 0.00880887
0.411108 0.1 -0.6 0.00914573
0.350249 0.1 0.6375 0.010088
0.350249 0.1 -0.6375 0.0106474
0.623803 0.1 0.375 0.00486497
0.623803 0.1 -0.375 0.00495334
0.714971 0.1 0.15 0.00375521
0.714971 0.1 -0.15 0.0037901
0.467897 0.1 0.5625 0.00752146
0.467897 0.1 -0.5625 0.00770116
0 0.1 0.73201 0.00526307
0 0.1 -0.73201 0.00576201
0.0363518 0.1 0.73201 0.00797748
0.0363518 0.1 -0.73201 0.00991561
0.287374 0.1 0.675 0.0115534
0.287374 0.1 -0.675 0.0125754
0.522865 0.1 0.525 0.00652973
0.522865 0.1 -0.525 0.00669431
0.219992 0.1 0.7125 0.0129118
0.219992 0.1 -0.7125 0.0148558
0.714971 0.1 -0.225 0.00384859
0.714971 0.1 0.225 0.00379867
0 0.1 0.75 0.00525862
0 0.1 -0.75 0.00575112
0.67013 0.1 -0.3375 0.0043419
0.67013 0.1 0.3375 0.00427804
0.574157 0.1 0.4875 0.00559093
0.574157 0.1 -0.4875 0.00572068
0.756813 0.1 0.0375 0.00337099
0.756814 0.1 -0.0375 0.00338215
0.150379 0.1 -0.75 0.0146584
0.150379 0.1 0.75 0.0118307
0.756813 0.1 0.1125 0.00338126
0.756814 0.1 -0.1125 0.00341228
0 0.1 0.76799 0.00525345
0 0.1 -0.76799 0.0057389
0.0363518 0.1 0.76799 0.00789852
0.0363518 0.1 -0.76799 0.00970078
0.623803 0.1 0.45 0.00496574
0.623803 0.1 -0.45 0.00507948
0.714971 0.1 0.3 0.0038607
0.714971 0.1 -0.3 0.00392412
0.756813 0.1 0.1875 0.00341106
0.756813 0.1 -0.1875 0.00346102
0.67013 0.1 -0.4125 0.00445898
0.67013 0.1 0.4125 0.00436461
0.411108 0.1 0.675 0.00897346
0.411108 0.1 -0.675 0.00934598
0.467897 0.1 0.6375 0.00775844
0.467897 0.1 -0.6375 0.00788788
0.075776 0.1 -0.7875 0.0139514
0.075776 0.1 0.7875 0.010762
0.350249 0.1 -0.7125 0.0108818
0.350249 0.1 0.7125 0.0101726
0.791054 0.1 0.0690034 0.00318516
0.522865 0.1 0.6 0.00673311
0.522865 0.1 -0.6 0.00688256
0.797314 0.1 -3.03577e-18 0.00312572
0.797314 0.1 -0.075 0.00313775
0.756814 0.1 0.2625 0.00346033
0.756814 0.1 -0.2625 0.00352542
0.287374 0.1 -0.75 0.0129786
0.287374 0.1 0.75 0.0114601
0.574156 0.1 0.5625 0.00575337
0.574156 0.1 -0.5625 0.00589722
0 0.1 0.80701 0.00524583
0 0.1 -0.80701 0.0057146
0.714971 0.1 -0.375 0.00402469
0.714971 0.1 0.375 0.0039391
0.0363518 0.1 0.80701 0.0078909
0.0363518 0.1 -0.80701 0.00967648
0.797314 0.1 0.15 0.00313313
0.797314 0.1 -0.15 0.00317601
0.623803 0.1 0.525 0.00509719
0.623803 0.1 -0.525 0.00523489
0.219992 0.1 -0.7875 0.0154253
0.219992 0.1 0.7875 0.0126333
0 0.1 0.825 0.00524393
0 0.1 -0.825 0.00570358
0.797314 0.1 0.225 0.00316871
0.797314 0.1 -0.225 0.00323029
0.756813 0.1 -0.3375 0.00360207
0.756814 0.1 0.3375 0.00352635
0.67013 0.1 0.4875 0.00447417
0.67013 0.1 -0.4875 0.00459726
0.835106 0.1 0.0375 0.00285979
0.835106 0.1 -0.0375 0.0028715
0.150379 0.1 -0.825 0.0146129
0.150379 0.1 0.825 0.0116384
0.835106 0.1 0.1125 0.00286614
0.835106 0.1 -0.1125 0.00289992
0 0.1 -0.84299 0.00569097
0 0.1 0.84299 0.00524126
0.0363518 0.1 -0.84299 0.0094877
0.0363518 0.1 0.84299 0.00783555
0.714971 0.1 -0.45 0.00415097
0.714971 0.1 0.45 0.00403279
0.797314 0.1 0.3 0.00322157
0.797314 0.1 -0.3 0.003298
0.467897 0.1 0.7125 0.0079786
0.467897 0.1 -0.7125 0.00810378
0.522865 0.1 0.675 0.00696553
0.522865 0.1 -0.675 0.00710057
0.411108 0.1 -0.75 0.00954561
0.411108 0.1 0.75 0.00912052
0.835106 0.1 -0.1875 0.00294569
0.835107 0.1 0.1875 0.00288909
0.574156 0.1 0.6375 0.00596881
0.574156 0.1 -0.6375 0.00611443
0.350249 0.1 -0.7875 0.0109906
0.350249 0.1 0.7875 0.0102479
0.756814 0.1 0.4125 0.00361159
0.756814 0.1 -0.4125 0.00371958
0.623803 0.1 0.6 0.00526841
0.623803 0.1 -0.6 0.00542482
0.075776 0.1 0.8625 0.0106475
0.075776 0.1 -0.8625 0.0135638
0.871687 0.1 -0.00399773 0.00267842
0.287374 0.1 -0.825 0.0131686
0.287374 0.1 0.825 0.0113747
0.871687 0.1 0.075 0.00266924
0.871687 0.1 -0.075 0.00269343
0.67013 0.1 0.5625 0.00461006
0.67013 0.1 -0.5625 0.00476408
0.835106 0.1 0.2625 0.00292963
0.835106 0.1 -0.2625 0.00300403
0.797314 0.1 0.375 0.00329136
0.797314 0.1 -0.375 0.00338954
0 0.1 -0.88201 0.00566787
0 0.1 0.88201 0.00523904
0.0363518 0.1 0.88201 0.00783333
0.0363518 0.1 -0.88201 0.0094646
0.871687 0.1 0.15 0.00268151
0.871687 0.1 -0.15 0.00273064
0.714971 0.1 0.525 0.00414752
0.714971 0.1 -0.525 0.00429974
0.219992 0.1 0.8625 0.0124245
0.219993 0.1 -0.8625 0.0154698
0 0.1 0.9 0.0052398
0 0.1 -0.9 0.0056582
0.756813 0.1 0.4875 0.00370518
0.756814 0.1 -0.4875 0.00385179
0.871687 0.1 0.225 0.00270969
0.871687 0.1 -0.225 0.00278188
0.835106 0.1 0.3375 0.00298551
0.835106 0.1 -0.3375 0.00307562
0.90582 0.1 -0.0375 0.00249175
0.905821 0.1 0.0375 0.00247902
0.150379 0.1 0.9 0.0115072
0.150379 0.1 -0.9 0.0144274
0.90582 0.1 0.1125 0.00248174
0.90582 0.1 -0.1125 0.0025202
0.522865 0.1 -0.75 0.00733646
0.522865 0.1 0.75 0.00719801
0.574156 0.1 0.7125 0.00622816
0.574156 0.1 -0.7125 0.00636819
0.797314 0.1 0.45 0.00337521
0.797314 0.1 -0.45 0.0035072
0.467897 0.1 -0.7875 0.00834969
0.467897 0.1 0.7875 0.00819041
0 0.1 0.91799 0.00523974
0 0.1 -0.91799 0.0056468
0.0363518 0.1 0.91799 0.00780325
0.0363518 0.1 -0.91799 0.00929642
0.623803 0.1 0.675 0.00548309
0.623803 0.1 -0.675 0.00565057
0.411108 0.1 -0.825 0.00970243
0.411108 0.1 0.825 0.00924901
0.871687 0.1 0.3 0.00275373
0.871687 0.1 -0.3 0.00284602
0.67013 0.1 0.6375 0.00478258
0.67013 0.1 -0.6375 0.00496387
0.90582 0.1 0.1875 0.00249893
0.905821 0.1 -0.1875 0.0025664
0.350249 0.1 0.8625 0.0103074
0.350249 0.1 -0.8625 0.0110302
0.835106 0.1 0.4125 0.00305781
0.835106 0.1 -0.4125 0.00317634
0.714971 0.1 0.6 0.00429111
0.714971 0.1 -0.6 0.00447737
0.93886 0.1 -0.00399773 0.00238665
0.075776 0.1 0.9375 0.0105849
0.075776 0.1 -0.9375 0.013218
0.93886 0.1 0.075 0.00237888
0.93886 0.1 -0.075 0.00240258
0.756813 0.1 0.5625 0.00382546
0.756814 0.1 -0.5625 0.00400969
0.90582 0.1 0.2625 0.00253114
0.905821 0.1 -0.2625 0.00262106
0.287374 0.1 0.9 0.0113198
0.287374 0.1 -0.9 0.0131818
0.871687 0.1 0.375 0.0028128
0.871687 0.1 -0.375 0.00293025
0.93886 0.1 0.15 0.00238847
0.93886 0.1 -0.15 0.00243822
0.797314 0.1 0.525 0.00347552
0.797314 0.1 -0.525 0.00364635
0 0.1 0.95701 0.00524257
0 0.1 -0.95701 0.00562679
0.0363518 0.1 0.95701 0.00780608
0.0363518 0.1 -0.95701 0.00927641
0.219992 0.1 0.9375 0.0122882
0.219992 0.1 -0.9375 0.0153989
0.93886 0.1 0.225 0.00241158
0.93886 0.1 -0.225 0.00248566
0.90582 0.1 0.3375 0.00257889
0.905821 0.1 -0.3375 0.00269305
0.835107 0.1 0.4875 0.00314234
0.835107 0.1 -0.4875 0.00329691
0.969689 0.1 0.0375 0.00227802
0.969689 0.1 -0.0375 0.00228871
0.574156 0.1 0.7875 0.00647094
0.574156 0.1 -0.7875 0.00660224
0 0.1 0.975 0.00524561
0 0.1 -0.975 0.00561913
0.623803 0.1 0.75 0.00572357
0.623803 0.1 -0.75 0.00589643
0.96969 0.1 0.1125 0.00228085
0.96969 0.1 -0.1125 0.00231388
0.522865 0.1 -0.825 0.0075754
0.522865 0.1 0.825 0.0074095
0.67013 0.1 0.7125 0.00499594
0.67013 0.1 -0.7125 0.00519709
0.871687 0.1 0.45 0.00288664
0.871687 0.1 -0.45 0.00303856
0.467897 0.1 0.8625 0.0083603
0.467897 0.1 -0.8625 0.00857818
0.714971 0.1 -0.675 0.00468771
0.714971 0.1 0.675 0.00446827
0.93886 0.1 0.3 0.00244861
0.93886 0.1 -0.3 0.00254355
0.150379 0.1 0.975 0.0114302
0.150379 0.1 -0.975 0.014223
0.969689 0.1 -0.1875 0.00235669
0.969689 0.1 0.1875 0.00229648
0.411108 0.1 0.9 0.0093526
0.411108 0.1 -0.9 0.0097967
0.756813 0.1 0.6375 0.00397175
0.756813 0.1 -0.6375 0.00419601
0.990306 0.1 3.46945e-18 0.0021996
0 0.1 0.99299 0.00524776
0 0.1 -0.99299 0.00560963
0.990306 0.1 0.075 0.00219106
0.990306 0.1 -0.075 0.00221209
0.0363518 0.1 0.99299 0.00779489
0.0363518 0.1 -0.99299 0.0091287
0.905821 0.1 0.4125 0.00263949
0.905821 0.1 -0.4125 0.00278576
0.797314 0.1 0.6 0.00359928
0.797314 0.1 -0.6 0.00381153
0.350249 0.1 0.9375 0.0103644
0.350249 0.1 -0.9375 0.0110603
0.990306 0.1 0.15 0.00219979
0.990306 0.1 -0.15 0.00224459
0.969689 0.1 -0.2625 0.00240291
0.969689 0.1 0.2625 0.00232398
0.835106 0.1 0.5625 0.0032455
0.835106 0.1 -0.5625 0.00344306
0.93886 0.1 0.375 0.00249891
0.93886 0.1 -0.375 0.00262121
0.075776 0.1 1.0125 0.0105612
0.075776 0.1 -1.0125 0.0129141
0.990306 0.1 0.225 0.00222059
0.990306 0.1 -0.225 0.00228832
0.287374 0.1 0.975 0.0112998
0.287374 0.1 -0.975 0.0131536
0.871687 0.1 0.525 0.00297423
0.871687 0.1 -0.525 0.0031711
1.02149 0.1 -0.0369628 0.00205825
1.02149 0.1 0.0369628 0.00202517
0.969689 0.1 -0.3375 0.00246185
0.96969 0.1 0.3375 0.00236474
1.02149 0.1 0.110888 0.00202636
1.02149 0.1 -0.110888 0.00205606
0.90582 0.1 0.4875 0.00271762
0.905821 0.1 -0.4875 0.00290514
0 0.1 1.03201 0.005255
0 0.1 -1.03201 0.00559341
0.0363518 0.1 1.03201 0.00780214
0.0363518 0.1 -1.03201 0.00911248
0.67013 0.1 0.7875 0.00524445
0.67013 0.1 -0.7875 0.00546104
0.623803 0.1 -0.825 0.00614421
0.623803 0.1 0.825 0.00596488
0.990306 0.1 0.3 0.00225356
0.990306 0.1 -0.3 0.0023415
0.219992 0.1 -1.0125 0.0152887
0.219992 0.1 1.0125 0.0122055
0.574156 0.1 -0.8625 0.00685893
0.574157 0.1 0.8625 0.00669871
0.714971 0.1 0.75 0.00468139
0.714971 0.1 -0.75 0.00493084
1.02149 0.1 0.184814 0.00203967
1.02149 0.1 -0.184814 0.00209164
0.756814 0.1 0.7125 0.00414934
0.756813 0.1 -0.7125 0.00441855
0.522865 0.1 0.9 0.00759582
0.522865 0.1 -0.9 0.0077806
0.93886 0.1 0.45 0.00256279
0.93886 0.1 -0.45 0.00273049
1.04168 0.1 0 0.00194903
1.04168 0.1 0.0729162 0.00194482
1.04168 0.1 -0.0729162 0.0019636
0.797314 0.1 0.675 0.00374877
0.797314 0.1 -0.675 0.00400564
0.467897 0.1 0.9375 0.00848857
0.467897 0.1 -0.9375 0.00864534
0 0.1 1.05 0.00526009
0 0.1 -1.05 0.00558756
0.835106 0.1 0.6375 0.0033713
0.835106 0.1 -0.6375 0.00361369
1.04168 0.1 0.145832 0.00195028
1.04168 0.1 -0.145832 0.00198988
1.02149 0.1 0.25874 0.00206334
1.02149 0.1 -0.25874 0.00213826
0.969689 0.1 0.4125 0.00241699
0.969689 0.1 -0.4125 0.00254907
0.411108 0.1 0.975 0.00944569
0.411108 0.1 -0.975 0.00984165
0.871687 0.1 0.6 0.00307984
0.871687 0.1 -0.6 0.00332799
1.0579 0.1 -0.0360525 0.00190302
1.0579 0.1 0.0360525 0.00188738
0.990306 0.1 0.375 0.00229894
0.990306 0.1 -0.375 0.00241552
0.150379 0.1 1.05 0.0113988
0.150379 0.1 -1.05 0.0140319
1.0579 0.1 -0.108157 0.0019156
1.0579 0.1 0.108157 0.00188657
1.04168 0.1 0.218749 0.0019656
1.04168 0.1 -0.218749 0.00202773
0.90582 0.1 0.5625 0.00280248
0.905821 0.1 -0.5625 0.00304913
0 0.1 -1.06799 0.0055799
0 0.1 1.06799 0.00526422
0.0363518 0.1 -1.06799 0.00898852
0.0363518 0.1 1.06799 0.00780863
0.350249 0.1 1.0125 0.0104402
0.350249 0.1 -1.0125 0.0110867
1.0579 0.1 -0.180262 0.00194472
1.0579 0.1 0.180262 0.00189508
1.02149 0.1 0.332665 0.00209869
1.02149 0.1 -0.332665 0.00219814
0.93886 0.1 0.525 0.0026385
0.93886 0.1 -0.525 0.00286422
1.08012 0.1 1.70581e-17 0.00182376
1.04168 0.1 0.291665 0.00199037
1.04168 0.1 -0.291665 0.00207719
1.08012 0.1 0.0709941 0.00181964
1.08012 0.1 -0.074001 0.00183764
0.969689 0.1 -0.4875 0.00268671
0.96969 0.1 0.4875 0.00248179
1.0579 0.1 0.252367 0.00191144
1.0579 0.1 -0.252367 0.00198575
0.990306 0.1 -0.45 0.00252358
0.990306 0.1 0.45 0.00235655
0.287374 0.1 -1.05 0.0131156
0.287374 0.1 1.05 0.0113166
1.08012 0.1 0.141988 0.00182339
1.08012 0.1 -0.141988 0.00185991
0.075776 0.1 1.0875 0.010574
0.075776 0.1 -1.0875 0.0126587
0.714971 0.1 0.825 0.00491981
0.714971 0.1 -0.825 0.00518541
0.756813 0.1 0.7875 0.00436373
0.756813 0.1 -0.7875 0.00467194
0.67013 0.1 0.8625 0.00549419
0.67013 0.1 -0.8625 0.00570351
0.797314 0.1 -0.75 0.00423091
0.797314 0.1 0.75 0.00392762
0.623803 0.1 0.9 0.00619501
0.623803 0.1 -0.9 0.00639893
0.835106 0.1 0.7125 0.00352026
0.835107 0.1 -0.7125 0.00381119
0.574156 0.1 0.9375 0.00692292
0.574156 0.1 -0.9375 0.00712814
1.02149 0.1 -0.406591 0.00228517
1.02149 0.1 0.406591 0.00214632
1.08012 0.1 -0.212982 0.0018929
1.08012 0.1 0.212982 0.00183524
1.10076 0.1 -0.0349809 0.00176458
1.10076 0.1 0.0349809 0.00175803
0.871687 0.1 0.675 0.00320964
0.871687 0.1 -0.675 0.00350957
1.04168 0.1 0.364581 0.00202589
1.04168 0.1 -0.364581 0.00214458
1.10076 0.1 0.104943 0.00175794
1.10076 0.1 -0.104943 0.00178226
0.522865 0.1 0.975 0.00775647
0.522865 0.1 -0.975 0.00789451
1.0579 0.1 0.324472 0.00193641
1.0579 0.1 -0.324472 0.00203854
0 0.1 -1.10701 0.00556718
0 0.1 1.10701 0.00527541
0.0363518 0.1 1.10701 0.00781983
0.0363518 0.1 -1.10701 0.0089758
0.90582 0.1 0.6375 0.00291151
0.905821 0.1 -0.6375 0.00321591
0.219992 0.1 1.0875 0.0121756
0.219992 0.1 -1.0875 0.0151818
0.93886 0.1 0.6 0.00273505
0.93886 0.1 -0.6 0.0030126
1.10076 0.1 0.174905 0.00176644
1.10076 0.1 -0.174905 0.00180891
0.467897 0.1 1.0125 0.0086003
0.467897 0.1 -1.0125 0.00868774
1.08012 0.1 0.283976 0.00185452
1.08012 0.1 -0.283976 0.00193666
1.11928 0.1 -0.00290737 0.00171382
1.11711 0.1 -0.0710826 0.00173511
0.990306 0.1 0.525 0.00242669
0.990306 0.1 -0.525 0.00264878
0.969689 0.1 0.5625 0.00255708
0.96969 0.1 -0.5625 0.00282046
1.11928 0.1 0.0690357 0.00171045
0 0.1 1.125 0.00528234
0 0.1 -1.125 0.00556278
1.11807 0.1 -0.138193 0.00175334
0.411108 0.1 -1.05 0.00987973
0.411108 0.1 1.05 0.00952721
1.10076 0.1 -0.244866 0.00184533
1.10076 0.1 0.244866 0.00178211
1.11928 0.1 0.138072 0.00171398
1.02149 0.1 0.480517 0.00220615
1.02149 0.1 -0.480517 0.00239056
1.0579 0.1 -0.396577 0.00211136
1.0579 0.1 0.396577 0.0019719
1.04168 0.1 0.437497 0.00207263
1.04168 0.1 -0.437497 0.00223138
0.150379 0.1 1.125 0.0114106
0.150379 0.1 -1.125 0.0138707
1.08012 0.1 0.354971 0.00188244
1.08012 0.1 -0.354971 0.00199504
1.11807 0.1 -0.207288 0.00178336
1.11928 0.1 0.207107 0.00172473
0.350249 0.1 1.0875 0.0105397
0.350249 0.1 -1.0875 0.0111121
0 0.1 1.14299 0.0052882
0 0.1 -1.14299 0.00555662
0.0363518 0.1 1.14299 0.00784086
0.0363518 0.1 -1.14299 0.00887669
1.14316 0.1 -0.0339211 0.00165214
1.14316 0.1 0.0339211 0.00164372
1.10076 0.1 0.314829 0.00180459
1.10076 0.1 -0.314829 0.00189185
0.797314 0.1 0.825 0.00413852
0.797314 0.1 -0.825 0.00448035
0.756814 0.1 -0.8625 0.00493292
0.756814 0.1 0.8625 0.00460632
1.14316 0.1 -0.101763 0.00166528
1.14316 0.1 0.101763 0.00164305
0.835106 0.1 0.7875 0.00369575
0.835107 0.1 -0.7875 0.00403974
0.714971 0.1 0.9 0.00515748
0.714971 0.1 -0.9 0.00543677
0.871687 0.1 0.75 0.00336673
0.871687 0.1 -0.75 0.00371899
1.11807 0.1 -0.276385 0.00182246
0.67013 0.1 0.9375 0.00572021
0.67013 0.1 -0.9375 0.00596469
0.905821 0.1 0.7125 0.00304721
0.905821 0.1 -0.7125 0.00340729
1.11928 0.1 0.276143 0.00174194
1.14316 0.1 -0.169605 0.00168889
1.14316 0.1 0.169605 0.00164931
0.93886 0.1 0.675 0.00285601
0.93886 0.1 -0.675 0.00318183
1.15704 0.1 0 0.00161247
1.0579 0.1 0.468682 0.00201761
1.0579 0.1 -0.468682 0.00219483
0.623803 0.1 0.975 0.00640861
0.623803 0.1 -0.975 0.00660095
0.990306 0.1 0.6 0.00252
0.990306 0.1 -0.6 0.00278496
1.15704 0.1 -0.0671479 0.00162271
1.15704 0.1 0.0671479 0.00160913
1.04168 0.1 0.510414 0.00213222
1.04168 0.1 -0.510414 0.00232282
0.969689 0.1 0.6375 0.00267404
0.96969 0.1 -0.6375 0.00296975
1.08012 0.1 0.425965 0.00191985
1.08012 0.1 -0.425965 0.00206804
0.287374 0.1 -1.125 0.0130828
0.287374 0.1 1.125 0.0113719
1.02149 0.1 0.554443 0.00228171
1.02149 0.1 -0.554443 0.00249357
0.574156 0.1 -1.0125 0.00719339
0.574156 0.1 1.0125 0.00710368
1.15704 0.1 -0.134296 0.0016415
1.15704 0.1 0.134296 0.00161156
0.075776 0.1 1.1625 0.010617
0.075776 0.1 -1.1625 0.0124544
1.10076 0.1 0.384791 0.00183603
1.10076 0.1 -0.384791 0.0019551
1.14316 0.1 -0.237448 0.00172032
1.14316 0.1 0.237448 0.00166133
1.11807 0.1 -0.345481 0.00187378
1.11928 0.1 0.345179 0.00176641
0.522865 0.1 1.05 0.00785461
0.522865 0.1 -1.05 0.00795031
1.15704 0.1 -0.201444 0.0016679
1.15704 0.1 0.201444 0.00162003
1.1744 0.1 -0.0331401 0.00157637
1.1744 0.1 0.0331401 0.00157455
1.1744 0.1 -0.0994202 0.0015902
1.1744 0.1 0.0994202 0.00156984
0 0.1 1.18201 0.00530303
0 0.1 -1.18201 0.00554707
0.0363518 0.1 1.18201 0.00785569
0.0363518 0.1 -1.18201 0.00886715
0.219992 0.1 1.1625 0.0121984
0.219993 0.1 -1.1625 0.015094
1.14316 0.1 -0.30529 0.00175958
1.14316 0.1 0.30529 0.00167926
0.467897 0.1 1.0875 0.00863877
0.467897 0.1 -1.0875 0.00873143
1.1744 0.1 -0.1657 0.00161202
1.1744 0.1 0.1657 0.00157493
1.15704 0.1 -0.268592 0.00170119
1.15704 0.1 0.268592 0.00163399
1.0579 0.1 0.540787 0.00207682
1.0579 0.1 -0.540787 0.00227597
1.08012 0.1 0.496959 0.00196796
1.08012 0.1 -0.496959 0.00214438
1.10076 0.1 0.454752 0.00187604
1.10076 0.1 -0.454752 0.00202882
1.11807 0.1 -0.414577 0.00193829
1.11928 0.1 0.414214 0.00179913
1.04168 0.1 0.58333 0.0022062
1.04168 0.1 -0.58333 0.00243094
1.19529 0.1 0.0650961 0.00151639
1.1744 0.1 0.231981 0.00158498
1.1744 0.1 -0.231981 0.00164003
0.411108 0.1 1.125 0.00960135
0.411108 0.1 -1.125 0.00991718
1.19808 0.1 3.5851e-17 0.00151549
0.990306 0.1 0.675 0.0026361
0.990306 0.1 -0.675 0.00294432
1.02149 0.1 0.628368 0.00237492
1.02149 0.1 -0.628368 0.00263379
1.19808 0.1 -0.0650961 0.00152486
0 0.1 1.2 0.00531174
0 0.1 -1.2 0.00554423
0.871687 0.1 -0.825 0.00395845
0.871687 0.1 0.825 0.00355563
0.905821 0.1 -0.7875 0.0036278
0.90582 0.1 0.7875 0.0032156
0.835106 0.1 0.8625 0.00390811
0.835106 0.1 -0.8625 0.00429577
0.93886 0.1 0.75 0.00299413
0.93886 0.1 -0.75 0.00337465
0.797314 0.1 0.9 0.00437193
0.797314 0.1 -0.9 0.00473277
1.14316 0.1 -0.373132 0.00181146
1.14316 0.1 0.373132 0.00170421
0.969689 0.1 0.7125 0.00279619
0.969689 0.1 -0.7125 0.00313955
1.15704 0.1 -0.33574 0.00174345
1.15704 0.1 0.33574 0.00165404
0.756813 0.1 0.9375 0.00484214
0.756814 0.1 -0.9375 0.00518137
1.19808 0.1 0.130192 0.00151367
1.19808 0.1 -0.130192 0.00154184
0.714971 0.1 0.975 0.00538364
0.714971 0.1 -0.975 0.0056809
0.150379 0.1 1.2 0.0114652
0.150379 0.1 -1.2 0.0137474
1.20938 0.1 -0.0322656 0.00149537
1.20938 0.1 0.0322656 0.00148964
1.19808 0.1 0.178844 0.00151946
1.1744 0.1 0.298261 0.00160031
1.1744 0.1 -0.298261 0.00167388
1.20938 0.1 -0.0967968 0.00150793
1.20938 0.1 0.0967968 0.00148796
1.19808 0.1 -0.195288 0.00156505
0.350249 0.1 1.1625 0.010667
0.350249 0.1 -1.1625 0.0111376
0.67013 0.1 1.0125 0.00595119
0.67013 0.1 -1.0125 0.00617713
0 0.1 1.21799 0.00531927
0 0.1 -1.21799 0.00553965
1.11807 0.1 -0.483674 0.0020093
0.0363518 0.1 1.21799 0.00788907
0.0363518 0.1 -1.21799 0.00879034
1.11928 0.1 0.48325 0.001841
1.10076 0.1 -0.524714 0.0021013
1.10076 0.1 0.524714 0.00192676
1.20938 0.1 -0.161328 0.00152848
1.20938 0.1 0.161328 0.00149173
1.08012 0.1 0.567953 0.0020278
1.08012 0.1 -0.567953 0.00223536
0.623803 0.1 1.05 0.00656924
0.623803 0.1 -1.05 0.00670359
1.0579 0.1 -0.612892 0.00239233
1.0579 0.1 0.612892 0.0021481
1.15704 0.1 -0.402888 0.00179738
1.15704 0.1 0.402888 0.00168102
1.14316 0.1 0.440974 0.00173684
1.14316 0.1 -0.440974 0.00187444
1.19808 0.1 -0.260384 0.00159313
1.19808 0.1 0.260384 0.00153057
1.2267 0.1 3.64292e-18 0.00145592
1.2267 0.1 -0.0636649 0.00146523
1.2267 0.1 0.0636649 0.00145156
1.1744 0.1 -0.364541 0.00171718
1.1744 0.1 0.364541 0.00162165
0.574156 0.1 1.0875 0.00715954
0.574156 0.1 -1.0875 0.00724807
1.20938 0.1 -0.225859 0.0015528
1.20938 0.1 0.225859 0.00149992
1.04168 0.1 0.656246 0.00229733
1.04168 0.1 -0.656246 0.00257044
1.22587 0.1 0.12733 0.00145491
1.2267 0.1 -0.12733 0.00148144
0.287374 0.1 -1.2 0.0130634
0.287374 0.1 1.2 0.0114433
1.02149 0.1 0.702294 0.00248976
1.02149 0.1 -0.702294 0.00280034
0.075776 0.1 1.2375 0.0106856
0.075776 0.1 -1.2375 0.0122961
0.522865 0.1 1.125 0.0079003
0.522865 0.1 -1.125 0.00800209
1.2267 0.1 0.190397 0.00145757
1.2267 0.1 -0.190994 0.00150274
1.19808 0.1 0.32548 0.00154681
1.19808 0.1 -0.32548 0.0016274
0.990306 0.1 0.75 0.00275819
0.990306 0.1 -0.75 0.00312727
1.24274 0.1 -0.0314313 0.00142508
1.24274 0.1 0.0314313 0.00141848
1.20938 0.1 -0.29039 0.00158213
1.20938 0.1 0.29039 0.0015128
1.24274 0.1 -0.0942942 0.00143716
1.24274 0.1 0.0942942 0.00141546
1.11807 0.1 -0.552769 0.00209098
1.11928 0.1 0.552285 0.0018935
1.15704 0.1 -0.470036 0.00186208
1.15704 0.1 0.470036 0.00171553
0.969689 0.1 0.7875 0.002923
0.96969 0.1 -0.7875 0.00332973
0.93886 0.1 -0.825 0.00359018
0.93886 0.1 0.825 0.00315842
0.905821 0.1 0.8625 0.00341527
0.905821 0.1 -0.8625 0.00388093
1.1744 0.1 -0.430821 0.00177267
1.1744 0.1 0.430821 0.00164955
1.10076 0.1 0.594676 0.00198859
1.10076 0.1 -0.594676 0.0022017
1.14316 0.1 -0.508816 0.00194476
1.14316 0.1 0.508816 0.00177849
1.24274 0.1 0.157157 0.00141754
1.24274 0.1 -0.157157 0.00145662
1.2267 0.1 0.254158 0.00146626
1.2267 0.1 -0.254659 0.00152772
0.871687 0.1 -0.9 0.00420558
0.871687 0.1 0.9 0.0037668
0.467897 0.1 1.1625 0.00866832
0.467897 0.1 -1.1625 0.00877245
1.08012 0.1 0.638947 0.00209984
1.08012 0.1 -0.638947 0.00235392
1.25511 0.1 1.27213e-17 0.00139668
0.835106 0.1 0.9375 0.00415216
0.835106 0.1 -0.9375 0.00454433
1.25511 0.1 -0.0622446 0.00140667
1.25511 0.1 0.0622446 0.00139099
0.219992 0.1 1.2375 0.0122821
0.219992 0.1 -1.2375 0.015043
0 0.1 -1.25701 0.00553337
0 0.1 1.25701 0.00533718
0.0363518 0.1 -1.25701 0.00878406
0.0363518 0.1 1.25701 0.00790697
0.797314 0.1 0.975 0.00460422
0.797314 0.1 -0.975 0.00498527
1.19808 0.1 0.389737 0.00156875
1.19808 0.1 -0.390576 0.00167176
1.0579 0.1 -0.684997 0.00253048
1.0579 0.1 0.684997 0.00223508
1.20938 0.1 -0.354921 0.00161777
1.20938 0.1 0.354921 0.00153079
1.25511 0.1 0.124489 0.00138954
1.25511 0.1 -0.124489 0.0014228
1.24274 0.1 -0.220019 0.00147759
1.24274 0.1 0.220019 0.00142364
0.756814 0.1 1.0125 0.00506129
0.756814 0.1 -1.0125 0.00544397
1.25305 0.1 0.186734 0.00139755
1.2267 0.1 0.317097 0.00148028
1.2267 0.1 -0.318324 0.00155775
0.411108 0.1 1.2 0.00965904
0.411108 0.1 -1.2 0.00995146
1.25511 0.1 -0.186734 0.00144267
0.714971 0.1 1.05 0.00559366
0.714971 0.1 -1.05 0.00583583
1.04168 0.1 0.729162 0.00239823
1.04168 0.1 -0.729162 0.00273288
1.24274 0.1 -0.282882 0.00150302
1.24274 0.1 0.282882 0.00143413
0 0.1 1.275 0.00534721
0 0.1 -1.275 0.00553211
1.1744 0.1 -0.497102 0.00184026
1.1744 0.1 0.497102 0.00168426
1.15704 0.1 -0.537184 0.00193287
1.15704 0.1 0.537184 0.00175924
1.2756 0.1 -0.03061 0.00135805
1.2756 0.1 0.03061 0.00134945
0.67013 0.1 1.0875 0.00612453
0.67013 0.1 -1.0875 0.00624049
1.25305 0.1 0.248978 0.00140368
1.2756 0.1 0.09183 0.00134421
1.2756 0.1 -0.09183 0.00137099
1.11807 0.1 -0.621866 0.00219538
1.25511 0.1 -0.248978 0.00146505
1.20938 0.1 0.419453 0.00155454
1.20938 0.1 -0.419453 0.00166654
1.11928 0.1 0.621322 0.00195581
1.14316 0.1 -0.576659 0.00202477
1.14316 0.1 0.576659 0.00183068
1.19808 0.1 0.454694 0.00159656
1.19808 0.1 -0.455673 0.00172975
1.02149 0.1 0.776219 0.00260398
1.02149 0.1 -0.776219 0.00299611
0.150379 0.1 1.275 0.0115641
0.150379 0.1 -1.275 0.0136583
1.2267 0.1 0.381603 0.00149945
1.2756 0.1 -0.15305 0.00139028
1.2756 0.1 0.15305 0.00134375
1.2267 0.1 -0.381989 0.00159703
1.10076 0.1 0.664638 0.00206062