# nutMean  POINT_DATA 63831
# x  y  z  nutMean
0 0.5 3.39583e-17 0.0145085
0 0.5 -0.00617931 0.0145668
0 0.5 0.00617931 0.0144546
0.0124865 0.5 0.00617931 0.0154775
0.0124865 0.5 -0.00617931 0.0156403
0 0.5 -0.0688207 0.015121
0 0.5 0.0688207 0.0138921
0.0124865 0.5 0.0688207 0.0149151
0.0124865 0.5 -0.0688207 0.0161946
0 0.5 0.075 0.0138348
0 0.5 -0.075 0.0151726
0 0.5 -0.0811793 0.015229
0 0.5 0.0811793 0.0137814
0.0124865 0.5 0.0811793 0.0147508
0.0124865 0.5 -0.0811793 0.01635
0.075776 0.5 0.0375 0.0203551
0.075776 0.5 -0.0375 0.0213349
0.075776 0.5 0.1125 0.0193656
0.075776 0.5 -0.1125 0.0222685
0 0.5 -0.143821 0.0157439
0 0.5 0.143821 0.0132405
0.0124865 0.5 0.143821 0.0142099
0.0124865 0.5 -0.143821 0.0168649
0 0.5 0.15 0.0131875
0 0.5 -0.15 0.0157898
0.151149 0.5 2.20565e-18 0.0191909
0 0.5 -0.156179 0.0158413
0 0.5 0.156179 0.0131374
0.0124865 0.5 0.156179 0.0140555
0.0124865 0.5 -0.156179 0.0170313
0.151149 0.5 0.075 0.0184171
0.151149 0.5 -0.075 0.0197806
0.075776 0.5 0.1875 0.0184351
0.075776 0.5 -0.1875 0.0232597
0.151149 0.5 0.15 0.0176451
0.151149 0.5 -0.15 0.020322
0 0.5 -0.218821 0.0162067
0 0.5 0.218821 0.0126408
0.0124865 0.5 0.218821 0.0135589
0.0124865 0.5 -0.218821 0.0173967
0.219992 0.5 0.0375 0.0173767
0.219992 0.5 -0.0375 0.0179216
0 0.5 0.225 0.0125937
0 0.5 -0.225 0.0162276
0 0.5 -0.231179 0.0162547
0 0.5 0.231179 0.0125476
0.0124865 0.5 0.231179 0.0134187
0.0124865 0.5 -0.231179 0.0174117
0.219993 0.5 0.1125 0.016767
0.219993 0.5 -0.1125 0.0178707
0.151149 0.5 0.225 0.0169153
0.151149 0.5 -0.225 0.0207219
0.075776 0.5 0.2625 0.0175908
0.075776 0.5 -0.2625 0.0233592
0.288069 0.5 3.34766e-17 0.0144034
0.219992 0.5 0.1875 0.0161831
0.219992 0.5 -0.1875 0.0182177
0 0.5 0.293821 0.012108
0 0.5 -0.293821 0.01647
0.0124865 0.5 -0.293821 0.017627
0.0124865 0.5 0.293821 0.0129791
0.288069 0.5 0.075 0.0141262
0.288069 0.5 -0.075 0.0145581
0 0.5 0.3 0.0120681
0 0.5 -0.3 0.0164852
0 0.5 0.306179 0.0120278
0 0.5 -0.306179 0.016507
0.0124865 0.5 0.306179 0.0128581
0.0124865 0.5 -0.306179 0.0176662
0.288069 0.5 0.15 0.0138424
0.288069 0.5 -0.15 0.014674
0.151149 0.5 0.3 0.0162425
0.151149 0.5 -0.3 0.0208912
0.219992 0.5 0.2625 0.0156005
0.219992 0.5 -0.2625 0.0183991
0.075776 0.5 0.3375 0.0168575
0.075776 0.5 -0.3375 0.0235939
0.350249 0.5 0.0375 0.0113254
0.350249 0.5 -0.0375 0.0113987
0.288069 0.5 0.225 0.0135291
0.288069 0.5 -0.225 0.0148604
0.350249 0.5 0.1125 0.011407
0.350249 0.5 -0.1125 0.0114619
0 0.5 0.368821 0.0116524
0 0.5 -0.368821 0.0166365
0.0124865 0.5 0.368821 0.0124828
0.0124865 0.5 -0.368821 0.0177957
0 0.5 0.375 0.0116193
0 0.5 -0.375 0.0166396
0 0.5 -0.381179 0.0166497
0 0.5 0.381179 0.0115858
0.0124865 0.5 0.381179 0.0123824
0.0124865 0.5 -0.381179 0.0178458
0.350249 0.5 0.1875 0.0113445
0.350249 0.5 -0.1875 0.0115703
0.219992 0.5 0.3375 0.0150532
0.219992 0.5 -0.3375 0.0185606
0.151149 0.5 0.375 0.0156465
0.151149 0.5 -0.375 0.021155
0.411736 0.5 1.70099e-17 0.00975276
0.288069 0.5 0.3 0.0132311
0.288069 0.5 -0.3 0.0150174
0.411736 0.5 0.075 0.00976151
0.411736 0.5 -0.075 0.00979586
0.075776 0.5 0.4125 0.0162424
0.075776 0.5 -0.4125 0.0239056
0.350249 0.5 -0.2625 0.0116891
0.350249 0.5 0.2625 0.0112864
0.411736 0.5 0.15 0.00979027
0.411736 0.5 -0.15 0.00986559
0 0.5 -0.443821 0.0166062
0 0.5 0.443821 0.0112753
0.0124865 0.5 0.443821 0.0120719
0.0124865 0.5 -0.443821 0.0178023
0 0.5 0.45 0.0112482
0 0.5 -0.45 0.0165867
0 0.5 -0.456179 0.0165733
0 0.5 0.456179 0.0112211
0.0124865 0.5 0.456179 0.01199
0.0124865 0.5 -0.456179 0.0177427
0.219992 0.5 -0.4125 0.0189096
0.219993 0.5 0.4125 0.0145538
0.411736 0.5 0.225 0.00980108
0.411736 0.5 -0.225 0.00996558
0.467897 0.5 0.0375 0.00823827
0.467897 0.5 -0.0375 0.00823901
0.288069 0.5 0.375 0.0129603
0.288069 0.5 -0.375 0.0152547
0.151149 0.5 -0.45 0.0211854
0.151149 0.5 0.45 0.0151342
0.467897 0.5 0.1125 0.00826517
0.467897 0.5 -0.1125 0.00827713
0.350249 0.5 0.3375 0.0112486
0.350249 0.5 -0.3375 0.0118572
0.075776 0.5 -0.4875 0.0235582
0.075776 0.5 0.4875 0.0157403
0.467897 0.5 0.1875 0.00833192
0.467897 0.5 -0.1875 0.0083482
0.411736 0.5 0.3 0.00982224
0.411736 0.5 -0.3 0.0100967
0 0.5 -0.518821 0.0163668
0 0.5 0.518821 0.0109748
0.0124865 0.5 0.518821 0.0117437
0.0124865 0.5 -0.518821 0.0175362
0.523432 0.5 3.75966e-17 0.00728894
0 0.5 0.525 0.0109538
0 0.5 -0.525 0.0163396
0.523432 0.5 0.075 0.00730631
0.523432 0.5 -0.075 0.00730513
0 0.5 -0.531179 0.0163157
0 0.5 0.531179 0.0109326
0.0124865 0.5 0.531179 0.0116798
0.0124865 0.5 -0.531179 0.0174532
0.288069 0.5 0.45 0.0127197
0.288069 0.5 -0.45 0.0153956
0.219992 0.5 -0.4875 0.0187106
0.219992 0.5 0.4875 0.0141144
0.467897 0.5 -0.2625 0.00845153
0.467897 0.5 0.2625 0.00842055
0.350249 0.5 0.4125 0.0112177
0.350249 0.5 -0.4125 0.0121304
0.523432 0.5 0.15 0.00735459
0.523432 0.5 -0.15 0.00735625
0.151149 0.5 0.525 0.0147096
0.151149 0.5 -0.525 0.020884
0.411736 0.5 0.375 0.00985395
0.411736 0.5 -0.375 0.0102942
0.075776 0.5 0.5625 0.0153525
0.075776 0.5 -0.5625 0.0230677
0.523432 0.5 0.225 0.00743045
0.523432 0.5 -0.225 0.00743865
0.574156 0.5 0.0375 0.00639441
0.574157 0.5 -0.0375 0.00638859
0.467897 0.5 0.3375 0.00850428
0.467897 0.5 -0.3375 0.00858725
0.574156 0.5 0.1125 0.00643145
0.574156 0.5 -0.1125 0.00642064
0 0.5 -0.593821 0.016031
0 0.5 0.593821 0.0107488
0.0124865 0.5 0.593821 0.011496
0.0124865 0.5 -0.593821 0.0171685
0.288069 0.5 0.525 0.0125152
0.288069 0.5 -0.525 0.0153831
0 0.5 0.6 0.0107343
0 0.5 -0.6 0.0159993
0.350249 0.5 0.4875 0.0111962
0.350249 0.5 -0.4875 0.0122624
0.523432 0.5 -0.3 0.00754913
0.523432 0.5 0.3 0.00752406
0.219992 0.5 0.5625 0.0137421
0.219992 0.5 -0.5625 0.018525
0.574156 0.5 0.1875 0.0064937
0.574157 0.5 -0.1875 0.00648428
0 0.5 -0.606179 0.0159674
0 0.5 0.606179 0.0107188
0.0124865 0.5 0.606179 0.0114502
0.0124865 0.5 -0.606179 0.0170693
0.411736 0.5 0.45 0.00989891
0.411736 0.5 -0.45 0.0104955
0.151149 0.5 0.6 0.014374
0.151149 0.5 -0.6 0.0205186
0.467897 0.5 0.4125 0.00860834
0.467897 0.5 -0.4125 0.00880285
0.624316 0.5 2.64545e-17 0.00578144
0.624316 0.5 0.075 0.00580001
0.624316 0.5 -0.075 0.00579591
0.574156 0.5 -0.2625 0.00657637
0.574157 0.5 0.2625 0.00657971
0.075776 0.5 0.6375 0.0150722
0.075776 0.5 -0.6375 0.0224796
0.624316 0.5 0.15 0.00584739
0.624316 0.5 -0.15 0.00584246
0.523432 0.5 0.375 0.00763232
0.523432 0.5 -0.375 0.00771204
0.350249 0.5 -0.5625 0.012442
0.350249 0.5 0.5625 0.0111863
0.624316 0.5 0.225 0.00591924
0.624316 0.5 -0.225 0.00591703
0.288069 0.5 0.6 0.0123504
0.288069 0.5 -0.6 0.0153827
0.574157 0.5 0.3375 0.00669499
0.574157 0.5 -0.3375 0.00668815
0.411736 0.5 0.525 0.00995646
0.411736 0.5 -0.525 0.0106783
0 0.5 -0.668821 0.0156446
0 0.5 0.668821 0.0105959
0.0124865 0.5 0.668821 0.0113272
0.0124865 0.5 -0.668821 0.0167464
0.67013 0.5 0.0375 0.00520226
0.67013 0.5 -0.0375 0.00520239
0.219993 0.5 -0.6375 0.0183031
0.219992 0.5 0.6375 0.01344
0 0.5 0.675 0.0105879
0 0.5 -0.675 0.0156133
0.467897 0.5 -0.4875 0.0089878
0.467897 0.5 0.4875 0.00872821
0.67013 0.5 0.1125 0.00523411
0.67013 0.5 -0.1125 0.00523374
0 0.5 -0.681179 0.0155798
0 0.5 0.681179 0.0105785
0.0124865 0.5 0.681179 0.0113005
0.0124865 0.5 -0.681179 0.0166486
0.523432 0.5 0.45 0.00775803
0.523432 0.5 -0.45 0.00790621
0.151149 0.5 0.675 0.0141278
0.151149 0.5 -0.675 0.0201183
0.624316 0.5 0.3 0.00601596
0.624316 0.5 -0.3 0.00601502
0.67013 0.5 0.1875 0.00529274
0.67013 0.5 -0.1875 0.00529305
0.574156 0.5 0.4125 0.00682338
0.574156 0.5 -0.4125 0.00687807
0.715434 0.5 3.51282e-17 0.00478728
0.075776 0.5 0.7125 0.0149027
0.075776 0.5 -0.7125 0.0218861
0.715434 0.5 0.075 0.00479992
0.715434 0.5 -0.075 0.0048041
0.67013 0.5 0.2625 0.00537351
0.67013 0.5 -0.2625 0.00537661
0.350249 0.5 -0.6375 0.0126428
0.350249 0.5 0.6375 0.0111897
0.411736 0.5 0.6 0.0100264
0.411736 0.5 -0.6 0.0108988
0.624316 0.5 0.375 0.00613291
0.624316 0.5 -0.375 0.00615806
0.715434 0.5 0.15 0.00484082
0.715434 0.5 -0.15 0.00484848
0.467897 0.5 0.5625 0.00886123
0.467897 0.5 -0.5625 0.00921897
0.288069 0.5 0.675 0.0122273
0.288069 0.5 -0.675 0.0153854
0.523432 0.5 0.525 0.00790092
0.523432 0.5 -0.525 0.00811393
0 0.5 -0.743821 0.0152564
0 0.5 0.743821 0.0105159
0.0124865 0.5 -0.743821 0.0163251
0.0124865 0.5 0.743821 0.011238
0.219992 0.5 0.7125 0.0132094
0.219992 0.5 -0.7125 0.018079
0.715434 0.5 0.225 0.00490618
0.715434 0.5 -0.225 0.00491797
0 0.5 0.75 0.0105129
0 0.5 -0.75 0.0152268
0.67013 0.5 0.3375 0.00547873
0.67013 0.5 -0.3375 0.00548153
0.574157 0.5 0.4875 0.00697242
0.574157 0.5 -0.4875 0.00706499
0 0.5 -0.756179 0.0151953
0 0.5 0.756179 0.01051
0.0124865 0.5 0.756179 0.0112283
0.0124865 0.5 -0.756179 0.016235
0.756813 0.5 0.0375 0.00438906
0.756813 0.5 -0.0375 0.00439384
0.151149 0.5 0.75 0.0139702
0.151149 0.5 -0.75 0.019728
0.756813 0.5 0.1125 0.004413
0.756813 0.5 -0.1125 0.00442475
0.624316 0.5 -0.45 0.00633801
0.624316 0.5 0.45 0.00626847
0.715434 0.5 0.3 0.00499408
0.715434 0.5 -0.3 0.00501254
0.756813 0.5 0.1875 0.00446258
0.756813 0.5 -0.1875 0.00448077
0.67013 0.5 -0.4125 0.00564788
0.67013 0.5 0.4125 0.00559813
0.411736 0.5 0.675 0.0101088
0.411736 0.5 -0.675 0.0111501
0.467897 0.5 0.6375 0.00900579
0.467897 0.5 -0.6375 0.00948616
0.075776 0.5 0.7875 0.0148393
0.075776 0.5 -0.7875 0.0213276
0.350249 0.5 0.7125 0.0112083
0.350249 0.5 -0.7125 0.0128705
0.523432 0.5 0.6 0.00805864
0.523432 0.5 -0.6 0.00836165
0.797732 0.5 3.20924e-17 0.00409771
0.756813 0.5 0.2625 0.00453547
0.756814 0.5 -0.2625 0.00456002
0.797732 0.5 0.075 0.00410579
0.797732 0.5 -0.075 0.00411559
0.288069 0.5 0.75 0.0121472
0.288069 0.5 -0.75 0.015404
0.574156 0.5 -0.5625 0.00729291
0.574156 0.5 0.5625 0.00714024
0.715434 0.5 0.375 0.00510254
0.715434 0.5 -0.375 0.0051411
0.797732 0.5 0.15 0.00413932
0.797732 0.5 -0.15 0.00415858
0.624316 0.5 0.525 0.00642573
0.624316 0.5 -0.525 0.00653975
0.219992 0.5 0.7875 0.0130481
0.219992 0.5 -0.7875 0.0178691
0 0.5 -0.818821 0.0148921
0 0.5 0.818821 0.0104923
0.0124865 0.5 -0.818821 0.0159318
0.0124865 0.5 0.818821 0.0112107
0 0.5 0.825 0.0104895
0 0.5 -0.825 0.0148647
0.756813 0.5 -0.3375 0.00467051
0.756813 0.5 0.3375 0.00462868
0.67013 0.5 0.4875 0.00574387
0.67013 0.5 -0.4875 0.00582536
0.797732 0.5 0.225 0.00419641
0.797732 0.5 -0.225 0.00422516
0 0.5 -0.831179 0.0148367
0 0.5 0.831179 0.0104887
0.0124865 0.5 0.831179 0.0112005
0.0124865 0.5 -0.831179 0.0158515
0.835106 0.5 -0.0375 0.00381927
0.835106 0.5 0.0375 0.00381324
0.151149 0.5 0.825 0.0138803
0.151149 0.5 -0.825 0.0193717
0.835106 0.5 0.1125 0.00383257
0.835106 0.5 -0.1125 0.00384907
0.715434 0.5 0.45 0.00522934
0.715434 0.5 -0.45 0.0053013
0.797732 0.5 0.3 0.00427471
0.797732 0.5 -0.3 0.00431597
0.467897 0.5 0.7125 0.00916036
0.467897 0.5 -0.7125 0.00979112
0.523432 0.5 0.675 0.00822908
0.523432 0.5 -0.675 0.00864664
0.411736 0.5 0.75 0.0102048
0.411736 0.5 -0.75 0.0114321
0.835106 0.5 0.1875 0.00387412
0.835106 0.5 -0.1875 0.0039043
0.574156 0.5 0.6375 0.00732366
0.574156 0.5 -0.6375 0.00755768
0.350249 0.5 -0.7875 0.0131215
0.350249 0.5 0.7875 0.0112467
0.756813 0.5 -0.4125 0.00480363
0.756814 0.5 0.4125 0.00474504
0.075776 0.5 -0.8625 0.0208264
0.075776 0.5 0.8625 0.0148075
0.624316 0.5 0.6 0.00660148
0.624316 0.5 -0.6 0.0067791
0.872064 0.5 4.32235e-17 0.00358628
0.288069 0.5 0.825 0.0121083
0.288069 0.5 -0.825 0.0154456
0.67013 0.5 0.5625 0.00591043
0.67013 0.5 -0.5625 0.00604056
0.872064 0.5 0.075 0.00359147
0.872064 0.5 -0.075 0.00360479
0.835106 0.5 0.2625 0.0039388
0.835106 0.5 -0.2625 0.00398022
0.797732 0.5 0.375 0.00437415
0.797732 0.5 -0.375 0.00442885
0.872064 0.5 0.15 0.00361898
0.872064 0.5 -0.15 0.00364816
0.715434 0.5 0.525 0.00537739
0.715434 0.5 -0.525 0.0054905
0.219992 0.5 0.8625 0.0129502
0.219993 0.5 -0.8625 0.0176906
0 0.5 -0.893821 0.0145726
0 0.5 0.893821 0.010499
0.0124865 0.5 0.893821 0.0112107
0.0124865 0.5 -0.893821 0.0155875
0 0.5 0.9 0.0105009
0 0.5 -0.9 0.0145495
0.756813 0.5 0.4875 0.00487129
0.756813 0.5 -0.4875 0.00496859
0.872064 0.5 0.225 0.00366787
0.872064 0.5 -0.225 0.00371261
0.835106 0.5 0.3375 0.00402165
0.835106 0.5 -0.3375 0.00407809
0 0.5 0.906179 0.0105026
0 0.5 -0.906179 0.0145254
0.0124865 0.5 0.906179 0.0112099
0.0124865 0.5 -0.906179 0.0155201
0.90582 0.5 -0.0375 0.00336869
0.905821 0.5 0.0375 0.00336116
0.151149 0.5 0.9 0.0138311
0.90582 0.5 0.1125 0.00337628
0.90582 0.5 -0.1125 0.00339933
0.151149 0.5 -0.901373 0.0190496
0.523432 0.5 0.75 0.00841108
0.523432 0.5 -0.75 0.00896872
0.574157 0.5 0.7125 0.00752059
0.574156 0.5 -0.7125 0.00786091
0.797732 0.5 0.45 0.00448875
0.797732 0.5 -0.45 0.00457013
0.467897 0.5 0.7875 0.00932505
0.467897 0.5 -0.7875 0.0101309
0.624316 0.5 0.675 0.00679317
0.624316 0.5 -0.675 0.00705521
0.411736 0.5 0.825 0.0103144
0.411736 0.5 -0.825 0.0117431
0.872064 0.5 0.3 0.00373725
0.872064 0.5 -0.3 0.00379251
0.67013 0.5 0.6375 0.00609563
0.67013 0.5 -0.6375 0.00629082
0.90582 0.5 0.1875 0.00341054
0.90582 0.5 -0.1875 0.00345707
0.350249 0.5 -0.8625 0.0133959
0.350249 0.5 0.8625 0.0113004
0.835106 0.5 0.4125 0.00412745
0.835106 0.5 -0.4125 0.0041889
0.715434 0.5 0.6 0.0055477
0.715434 0.5 -0.6 0.00571475
0.939201 0.5 4.40909e-17 0.00325651
0.075776 0.5 -0.9375 0.0204185
0.075776 0.5 0.9375 0.014811
0.939201 0.5 0.075 0.0032613
0.939201 0.5 -0.075 0.00327435
0.756814 0.5 0.5625 0.00502569
0.756814 0.5 -0.5625 0.00516843
0.905821 0.5 0.2625 0.00346593
0.905821 0.5 -0.2625 0.00352603
0.288069 0.5 0.9 0.0121015
0.288069 0.5 -0.901373 0.0155022
0.872064 0.5 0.375 0.00382601
0.872064 0.5 -0.375 0.00388725
0.939201 0.5 -0.15 0.00331763
0.939201 0.5 0.15 0.00328662
0.797732 0.5 0.525 0.00462237
0.797732 0.5 -0.525 0.00474681
0.219993 0.5 -0.9375 0.0175526
0.219992 0.5 0.9375 0.0128827
0.939201 0.5 0.225 0.00333122
0.939201 0.5 -0.225 0.00337925
0.90582 0.5 0.3375 0.00354089
0.90582 0.5 -0.3375 0.00360339
0.835106 0.5 -0.4875 0.00434579
0.835107 0.5 0.4875 0.004238
0 0.5 0.968821 0.0105724
0 0.5 -0.968821 0.0143109
0.0124865 0.5 0.968821 0.0112797
0.0124865 0.5 -0.968821 0.0153057
0.969689 0.5 0.0375 0.00314906
0.969689 0.5 -0.0375 0.0031542
0.574156 0.5 0.7875 0.00772992
0.574156 0.5 -0.7875 0.00820136
0 0.5 0.975 0.0105849
0 0.5 -0.975 0.0142937
0.624316 0.5 0.75 0.00699894
0.624316 0.5 -0.75 0.00736858
0.969689 0.5 0.1125 0.00316572
0.96969 0.5 -0.1125 0.0031823
0.523432 0.5 0.825 0.00860358
0.523432 0.5 -0.825 0.0093263
0.67013 0.5 0.7125 0.00629669
0.67013 0.5 -0.7125 0.00657781
0 0.5 -0.981179 0.0142737
0 0.5 0.981179 0.0105967
0.467897 0.5 0.8625 0.00949906
0.467897 0.5 -0.8625 0.010504
0.0124865 0.5 0.981179 0.0113118
0.0124865 0.5 -0.981179 0.0152542
0.872064 0.5 0.45 0.00393181
0.872064 0.5 -0.45 0.00401541
0.715434 0.5 0.675 0.00573653
0.715434 0.5 -0.675 0.00597387
0.939201 0.5 0.3 0.00339544
0.939201 0.5 -0.3 0.00344728
0.151149 0.5 0.975 0.0138642
0.151149 0.5 -0.975 0.0188362
0.969689 0.5 0.1875 0.00320092
0.969689 0.5 -0.1875 0.003239
0.756814 0.5 0.6375 0.00520129
0.756814 0.5 -0.6375 0.00540093
0.411736 0.5 0.9 0.0104388
0.411736 0.5 -0.901373 0.0120822
0.90582 0.5 0.4125 0.00363275
0.90582 0.5 -0.4125 0.00369704
0.797732 0.5 0.6 0.00478122
0.797732 0.5 -0.6 0.00495614
1.00005 0.5 1.48897e-17 0.00297807
0.350249 0.5 -0.9375 0.0136918
0.350249 0.5 0.9375 0.0113749
1.00005 0.5 0.0749309 0.00298442
1.00005 0.5 -0.0749309 0.0029933
0.969689 0.5 0.2625 0.00325448
0.969689 0.5 -0.2625 0.00330219
0.835106 0.5 0.5625 0.00438183
0.835106 0.5 -0.5625 0.00453129
1.00005 0.5 0.149862 0.00300986
1.00005 0.5 -0.149862 0.00303304
0.939201 0.5 0.375 0.00347719
0.939201 0.5 -0.375 0.00353288
0.075776 0.5 1.0125 0.0149951
0.075776 0.5 -1.0125 0.0201026
0.288069 0.5 0.975 0.0121283
0.288069 0.5 -0.975 0.0156181
0.872064 0.5 0.525 0.00405345
0.872064 0.5 -0.525 0.00418299
1.00005 0.5 0.224793 0.00305311
1.00005 0.5 -0.224793 0.00308973
0.96969 0.5 0.3375 0.00332753
0.96969 0.5 -0.3375 0.00336514
1.0271 0.5 0.0368226 0.00279545
1.0271 0.5 -0.0368226 0.00279838
0.90582 0.5 0.4875 0.00374791
0.90582 0.5 -0.4875 0.00384875
1.0271 0.5 0.110468 0.00281041
1.0271 0.5 -0.110468 0.00282316
0.67013 0.5 -0.7875 0.0069015
0.67013 0.5 0.7875 0.00651219
0.624316 0.5 0.825 0.00721741
0.624316 0.5 -0.825 0.00771873
0.219992 0.5 -1.0125 0.0174599
0.219993 0.5 1.0125 0.0129027
0.574156 0.5 0.8625 0.00794932
0.574156 0.5 -0.8625 0.00857833
0.715434 0.5 0.75 0.00594159
0.715434 0.5 -0.75 0.00626996
0.756813 0.5 -0.7125 0.00566852
0.756814 0.5 0.7125 0.00539514
0.523432 0.5 0.9 0.00880647
0.939201 0.5 0.45 0.00357731
0.939201 0.5 -0.45 0.00366645
1.04168 0.5 0 0.00271533
0.523432 0.5 -0.901373 0.00972443
1.0271 0.5 0.184113 0.00284236
1.0271 0.5 -0.184113 0.0028695
0 0.5 1.04382 0.010723
0 0.5 -1.04382 0.0141111
0.0124865 0.5 1.04382 0.0114381
0.0124865 0.5 -1.04382 0.0150916
1.00005 0.5 0.299723 0.00311469
1.00005 0.5 -0.299723 0.00315327
1.04168 0.5 0.0729162 0.00272
1.04168 0.5 -0.0729162 0.00272884
0.797732 0.5 0.675 0.00495842
0.797732 0.5 -0.675 0.00519925
0.467897 0.5 -0.9375 0.0109078
0.467897 0.5 0.9375 0.00968729
0 0.5 1.05 0.0107356
0 0.5 -1.05 0.014101
0.835106 0.5 0.6375 0.00454392
0.835106 0.5 -0.6375 0.00475136
1.04168 0.5 0.145832 0.00274017
1.04168 0.5 -0.145832 0.00276238
0.969689 0.5 -0.4125 0.00347357
0.96969 0.5 0.4125 0.00341475
0 0.5 1.05618 0.0107489
0 0.5 -1.05618 0.0140858
0.0124865 0.5 1.05618 0.0114705
0.0124865 0.5 -1.05618 0.0150588
1.05695 0.5 -0.0360764 0.00263537
1.05695 0.5 0.0360764 0.00263161
0.411736 0.5 0.975 0.0105759
0.411736 0.5 -0.975 0.012445
0.872064 0.5 0.6 0.00419488
0.872064 0.5 -0.6 0.00437984
1.0271 0.5 0.257759 0.00289052
1.0271 0.5 -0.257759 0.00292642
0.151149 0.5 -1.05 0.0186739
0.151149 0.5 1.05 0.0139912
1.05695 0.5 0.108229 0.00264139
1.05695 0.5 -0.108229 0.00265847
1.04168 0.5 0.218749 0.00277544
1.04168 0.5 -0.218749 0.00281001
0.90582 0.5 0.5625 0.00386534
0.90582 0.5 -0.5625 0.00402525
1.00005 0.5 0.374654 0.00319347
1.00005 0.5 -0.374654 0.00324355
0.350249 0.5 1.0125 0.0114483
0.350249 0.5 -1.0125 0.0140069
1.05695 0.5 0.180382 0.00266532
1.05695 0.5 -0.180382 0.00269747
0.939201 0.5 0.525 0.00368947
0.939201 0.5 -0.525 0.00383916
1.0271 0.5 -0.331404 0.00299624
1.0271 0.5 0.331404 0.00295651
1.08112 0.5 3.20924e-17 0.00253661
1.04168 0.5 0.291665 0.00282626
1.04168 0.5 -0.291665 0.0028689
1.08112 0.5 0.0709442 0.0025402
1.08112 0.5 -0.0709442 0.00254881
0.96969 0.5 0.4875 0.00352123
0.96969 0.5 -0.4875 0.0036533
1.05695 0.5 0.252535 0.0027025
1.05695 0.5 -0.252535 0.00274529
0.288069 0.5 1.05 0.0121883
0.288069 0.5 -1.05 0.0157529
0.075776 0.5 -1.0875 0.0198903
0.075776 0.5 1.0875 0.0151997
1.08112 0.5 0.141888 0.0025566
1.08112 0.5 -0.141888 0.0025788
0.715434 0.5 0.825 0.00616106
0.715434 0.5 -0.825 0.00660347
0.756814 0.5 0.7875 0.00560529
0.756814 0.5 -0.7875 0.00597547
0.67013 0.5 0.8625 0.00674143
0.67013 0.5 -0.8625 0.00726191
0.797732 0.5 0.75 0.00515157
0.797732 0.5 -0.75 0.00547774
0.624316 0.5 0.9 0.00744649
1.00005 0.5 0.449585 0.0032896
1.00005 0.5 -0.449585 0.0033787
0.624316 0.5 -0.901373 0.00811389
0.835106 0.5 0.7125 0.00472182
0.835106 0.5 -0.7125 0.00500418
0.574156 0.5 -0.9375 0.00899088
0.574156 0.5 0.9375 0.00817682
1.10076 0.5 0.0349809 0.00246623
1.10076 0.5 -0.0349809 0.00246732
1.08112 0.5 0.212832 0.00258611
1.08112 0.5 -0.212832 0.00261929
0.872064 0.5 0.675 0.0043583
0.872064 0.5 -0.675 0.00460922
1.04168 0.5 -0.364581 0.00295352
1.04168 0.5 0.364581 0.00289318
1.0271 0.5 -0.405049 0.00310694
1.0271 0.5 0.405049 0.00303875
1.05695 0.5 0.324688 0.00275468
1.05695 0.5 -0.324688 0.0028091
1.10076 0.5 -0.104943 0.00248837
1.10076 0.5 0.104943 0.0024767
0.523432 0.5 0.975 0.0090236
0.523432 0.5 -0.975 0.0101421
0.90582 0.5 0.6375 0.00400858
0.90582 0.5 -0.6375 0.00423101
0.219992 0.5 1.0875 0.0130112
0.219992 0.5 -1.0875 0.0174177
1.11376 0.5 1.15648e-18 0.00242212
0.939201 0.5 0.6 0.00383484
0.939201 0.5 -0.6 0.00403078
1.10076 0.5 0.174905 0.00250058
1.10076 0.5 -0.174905 0.00252654
0.467897 0.5 -1.0125 0.0113404
0.467897 0.5 1.0125 0.00989154
1.11376 0.5 0.0693118 0.00242718
1.11376 0.5 -0.0693118 0.00243252
1.08112 0.5 0.283777 0.0026289
1.08112 0.5 -0.285603 0.00267298
0 0.5 -1.11882 0.0139813
0 0.5 1.11882 0.0109101
0.0124865 0.5 1.11882 0.0116317
0.0124865 0.5 -1.11882 0.0149544
0.969689 0.5 0.5625 0.00363108
0.969689 0.5 -0.5625 0.00383561
1.11376 0.5 0.138624 0.00244436
1.11376 0.5 -0.138624 0.00246178
0 0.5 1.125 0.0109281
0 0.5 -1.125 0.0139766
1.10076 0.5 0.244866 0.00253715
1.10076 0.5 -0.244866 0.00256659
0.411736 0.5 -1.05 0.012832
0.411736 0.5 1.05 0.0106843
1.05695 0.5 -0.396841 0.00292077
1.05695 0.5 0.396841 0.00282195
1.00005 0.5 0.524516 0.00340069
1.00005 0.5 -0.525427 0.00354754
1.04168 0.5 -0.437497 0.00306574
1.04168 0.5 0.437497 0.00297643
0 0.5 1.13118 0.0109464
0 0.5 -1.13118 0.0139693
0.0124865 0.5 -1.13118 0.0149431
0.0124865 0.5 1.13118 0.0116792
1.11376 0.5 0.207935 0.00247434
1.0271 0.5 -0.478694 0.00323969
1.0271 0.5 0.478694 0.00313957
1.11376 0.5 -0.213207 0.00250018
1.07791 0.5 -0.354722 0.0027564
0.151149 0.5 1.125 0.0141993
0.151149 0.5 -1.125 0.0185905
1.08112 0.5 0.354722 0.002686
1.13882 0.5 0.0340295 0.00233371
1.13882 0.5 -0.0340295 0.00233356
0.350249 0.5 1.0875 0.0114868
0.350249 0.5 -1.0875 0.0143406
1.13882 0.5 0.102088 0.00234461
1.13882 0.5 -0.102088 0.00235242
1.10076 0.5 0.314829 0.00258698
1.10076 0.5 -0.314829 0.00262183
0.756813 0.5 -0.8625 0.00631929
0.756814 0.5 0.8625 0.00582854
0.797732 0.5 0.825 0.00536124
0.797732 0.5 -0.825 0.00579399
1.11376 0.5 -0.277247 0.00254312
1.11376 0.5 0.277247 0.00251698
0.835106 0.5 0.7875 0.00491325
0.835106 0.5 -0.7875 0.00529153
0.715434 0.5 0.9 0.00639174
0.872064 0.5 0.75 0.00454331
0.872064 0.5 -0.75 0.00487433
0.715434 0.5 -0.901373 0.00698316
1.13882 0.5 -0.170147 0.0023895
1.13882 0.5 0.170147 0.0023679
0.67013 0.5 -0.9375 0.00765886
0.67013 0.5 0.9375 0.00698103
0.90582 0.5 0.7125 0.00417948
0.90582 0.5 -0.7125 0.00447039
1.05695 0.5 -0.468994 0.00304019
1.05695 0.5 0.468994 0.00290517
0.939201 0.5 0.675 0.00399775
0.939201 0.5 -0.675 0.00424723
0.624316 0.5 0.975 0.00768935
0.624316 0.5 -0.975 0.00852746
1.04168 0.5 -0.510414 0.00320064
1.04168 0.5 0.510414 0.00307774
0.969689 0.5 0.6375 0.00384101
0.969689 0.5 -0.6375 0.00403744
0.288069 0.5 1.125 0.0123265
0.288069 0.5 -1.125 0.0159207
1.16179 0.5 1.04083e-17 0.00224761
1.08112 0.5 -0.425666 0.00284088
1.08112 0.5 0.425666 0.00275772
1.13882 0.5 -0.238206 0.00243602
1.13882 0.5 0.238206 0.00240323
1.16179 0.5 0.0669104 0.00225339
1.16179 0.5 -0.0669104 0.00225558
0.574156 0.5 -1.0125 0.00943783
0.574156 0.5 1.0125 0.008423
0.998291 0.5 -0.599796 0.00374462
0.075776 0.5 -1.1625 0.0197969
0.075776 0.5 1.1625 0.015491
1.00005 0.5 0.599447 0.00354884
1.10076 0.5 -0.384791 0.00270571
1.10076 0.5 0.384791 0.00265135
1.0271 0.5 0.55234 0.0032578
1.0271 0.5 -0.55234 0.00333562
1.11376 0.5 -0.346559 0.00261259
1.11376 0.5 0.346559 0.00257318
1.16179 0.5 0.133821 0.00226949
1.16179 0.5 -0.133821 0.00228426
0.523432 0.5 -1.05 0.010597
0.523432 0.5 1.05 0.00921509
1.17463 0.5 0.0331343 0.00220259
1.17463 0.5 -0.0331343 0.00220101
1.15837 0.5 -0.200731 0.002329
1.17463 0.5 0.0994029 0.00221269
1.17463 0.5 -0.0994029 0.0022171
1.16179 0.5 0.200074 0.00229813
1.13882 0.5 -0.306265 0.00247507
1.13882 0.5 0.306265 0.00245069
0.219992 0.5 1.1625 0.0132439
0.219992 0.5 -1.1625 0.0174237
0.467897 0.5 -1.0875 0.0117996
0.467897 0.5 1.0875 0.0100026
1.17463 0.5 0.165672 0.00223384
1.17463 0.5 -0.165672 0.00225299
1.05695 0.5 0.541147 0.00300783
1.05695 0.5 -0.541147 0.00315305
1.18772 0.5 -1.15648e-18 0.00215791
1.11376 0.5 -0.41587 0.00270388
1.11376 0.5 0.41587 0.00264314
1.18772 0.5 0.0655187 0.00216381
1.08112 0.5 0.49661 0.00284663
1.08112 0.5 -0.49661 0.0029604
1.18772 0.5 -0.0699161 0.00216452
1.10076 0.5 -0.454752 0.00281003
1.10076 0.5 0.454752 0.00272944
1.16179 0.5 0.267642 0.00233884
1.16179 0.5 -0.267642 0.00235619
0 0.5 1.19382 0.0111602
0 0.5 -1.19382 0.0139183
0.0124865 0.5 -1.19382 0.0148921
0.0124865 0.5 1.19382 0.011893
1.04168 0.5 -0.58333 0.00334836
1.04168 0.5 0.58333 0.0031979
1.18772 0.5 0.131228 0.00217991
1.18772 0.5 -0.131228 0.00218737
1.17463 0.5 0.23194 0.00226577
1.17463 0.5 -0.23194 0.00228505
0.411736 0.5 1.125 0.0108148
0.411736 0.5 -1.125 0.013244
1.13882 0.5 0.374324 0.0025117
1.13882 0.5 -0.374324 0.00254878
0 0.5 1.2 0.0111835
0 0.5 -1.2 0.0139127
0.90582 0.5 0.7875 0.00437924
0.90582 0.5 -0.7875 0.00475165
0.872064 0.5 0.825 0.00474373
0.872064 0.5 -0.825 0.00517441
0.835106 0.5 -0.8625 0.00561919
0.835106 0.5 0.8625 0.0051277
1.18534 0.5 0.196842 0.00221208
0.939201 0.5 0.75 0.00415277
0.939201 0.5 -0.75 0.00448033
0.797732 0.5 0.9 0.00558453
1.0271 0.5 -0.625985 0.00356419
1.0271 0.5 0.625985 0.00340281
0.969689 0.5 0.7125 0.00396818
0.96969 0.5 -0.7125 0.00425667
0.797732 0.5 -0.901373 0.00615943
1.18772 0.5 -0.196842 0.00222116
0.756813 0.5 -0.9375 0.00669956
0.756813 0.5 0.9375 0.00605952
0.998291 0.5 -0.67477 0.00395118
1.15863 0.5 0.334552 0.00239783
0 0.5 1.20618 0.0112073
0 0.5 -1.20618 0.0139118
1.00005 0.5 0.674378 0.00370875
0.0124865 0.5 -1.20618 0.0148872
0.0124865 0.5 1.20618 0.0119561
1.16179 0.5 -0.334552 0.00241148
0.715434 0.5 0.975 0.00663623
0.715434 0.5 -0.975 0.00738194
0.151149 0.5 1.2 0.0144912
0.151149 0.5 -1.2 0.0185761
1.20942 0.5 -0.0322645 0.00208223
1.20942 0.5 0.0322645 0.00208461
1.18534 0.5 0.249669 0.00223972
1.17463 0.5 0.298209 0.00230842
1.17463 0.5 -0.298209 0.00232676
1.20942 0.5 0.0967935 0.00209423
1.20942 0.5 -0.0967935 0.00209579
0.350249 0.5 1.1625 0.0116638
0.350249 0.5 -1.1625 0.0146908
0.67013 0.5 1.0125 0.00723857
0.67013 0.5 -1.0125 0.00809207
1.11376 0.5 -0.485183 0.00281999
1.11376 0.5 0.485183 0.00272934
1.18772 0.5 -0.262456 0.00225612
1.10076 0.5 -0.524714 0.0029433
1.10076 0.5 0.524714 0.00282718
1.20942 0.5 0.161322 0.0021103
1.20942 0.5 -0.161322 0.00212518
1.08112 0.5 -0.567554 0.00308648
1.08112 0.5 0.567554 0.00295034
0.624316 0.5 1.05 0.00792579
0.624316 0.5 -1.05 0.0089881
1.13882 0.5 0.442383 0.00258538
1.13882 0.5 -0.442383 0.00264618
1.05695 0.5 -0.6133 0.00328609
1.05695 0.5 0.6133 0.00312475
1.15863 0.5 0.401463 0.00246124
1.16179 0.5 -0.401463 0.0024905
0.574156 0.5 1.0875 0.00862361
0.574157 0.5 -1.0875 0.00991766
1.17463 0.5 0.364477 0.0023636
1.17463 0.5 -0.364477 0.0023895
1.20942 0.5 0.225851 0.00213911
1.20942 0.5 -0.225851 0.00215377
1.23036 0.5 -1.38778e-17 0.0020095
1.04168 0.5 -0.656246 0.00352264
1.04168 0.5 0.656246 0.00333848
1.23036 0.5 -0.0634819 0.0020152
1.23036 0.5 0.0634819 0.00201585
1.18772 0.5 0.32807 0.00228664
1.18772 0.5 -0.32807 0.00230535
0.288069 0.5 1.2 0.0125491
0.288069 0.5 -1.2 0.0161259
1.23036 0.5 0.126964 0.00203016
1.23036 0.5 -0.126964 0.00203603
0.075776 0.5 -1.2375 0.0197756
0.075776 0.5 1.2375 0.0158778
0.523432 0.5 1.125 0.0094002
0.523432 0.5 -1.125 0.0110881
1.0271 0.5 -0.69963 0.00377948
1.0271 0.5 0.69963 0.00355118
1.24274 0.5 -0.0314313 0.00196777
1.24274 0.5 0.0314313 0.00197108
1.20942 0.5 0.29038 0.00217758
1.20942 0.5 -0.29038 0.00218904
1.11376 0.5 -0.554494 0.00293852
1.11376 0.5 0.554494 0.00282907
1.23036 0.5 0.190445 0.00205337
1.23036 0.5 -0.190445 0.00206507
1.24274 0.5 0.0942942 0.00198108
1.24274 0.5 -0.0942942 0.00197914
1.13882 0.5 -0.510442 0.00276802
1.13882 0.5 0.510442 0.00267681
0.998291 0.5 -0.749744 0.0041766
0.969689 0.5 0.7875 0.00409246
0.969689 0.5 -0.7875 0.00445106
1.00005 0.5 0.749309 0.00384529
1.15863 0.5 0.468373 0.00253913
0.939201 0.5 0.825 0.00433851
0.939201 0.5 -0.825 0.00474604
1.2484 0.5 -0.0653061 0.00195493
0.90582 0.5 0.8625 0.00457547
0.90582 0.5 -0.8625 0.00505624
1.17463 0.5 -0.430746 0.0024774
1.17463 0.5 0.430746 0.00242991
1.10076 0.5 -0.594676 0.00305444
1.10076 0.5 0.594676 0.00293275
1.18772 0.5 0.393684 0.00234529
1.18772 0.5 -0.393684 0.00237739
1.24274 0.5 -0.157157 0.00200941
1.24274 0.5 0.157157 0.00199994
1.16179 0.5 -0.468373 0.00259393
0.467897 0.5 -1.1625 0.0122962
0.467897 0.5 1.1625 0.0101954
0.872064 0.5 0.9 0.00495349
1.25401 0.5 0 0.00193703
0.872064 0.5 -0.901373 0.00551893
1.24906 0.5 -0.125094 0.00197308
0.835106 0.5 0.9375 0.0053525
0.835106 0.5 -0.9375 0.0059897
1.25401 0.5 0.0622994 0.00194348
1.08112 0.5 -0.638498 0.00323042
1.08112 0.5 0.638498 0.00307497
1.23036 0.5 0.253927 0.00208527
1.23036 0.5 -0.253927 0.0020945
0.219992 0.5 1.2375 0.0135068
0.219992 0.5 -1.2375 0.0174706
1.05695 0.5 -0.685452 0.00347034
1.05695 0.5 0.685452 0.00326789
0.797732 0.5 0.975 0.00582374
0.797732 0.5 -0.975 0.00654388
1.25401 0.5 0.124599 0.00195731
1.20942 0.5 0.354909 0.00222751
1.20942 0.5 -0.354909 0.00224265
1.24274 0.5 0.220019 0.00202695
1.24274 0.5 -0.220019 0.00203561
1.24906 0.5 -0.187641 0.00200063
0.756813 0.5 -1.0125 0.00712296
0.756813 0.5 1.0125 0.00630973
1.25401 0.5 0.186898 0.00197933
0.411736 0.5 1.2 0.0110254
0.411736 0.5 -1.2 0.0136905
0 0.5 1.26882 0.011475
0 0.5 -1.26882 0.0138893
0.0124865 0.5 -1.26882 0.0148647
0.0124865 0.5 1.26882 0.0122238
0.715434 0.5 -1.05 0.00783314
0.715434 0.5 1.05 0.00688743
1.23036 0.5 0.31741 0.00212686
1.23036 0.5 -0.31741 0.00213521
1.04168 0.5 -0.729162 0.00374162
1.04168 0.5 0.729162 0.00347582
1.18772 0.5 -0.459298 0.0024725
1.18772 0.5 0.459298 0.00241725
1.24274 0.5 0.282882 0.00206218
1.24274 0.5 -0.282882 0.00206563
0 0.5 1.275 0.0115035
0 0.5 -1.275 0.0138797
1.27472 0.5 -0.0306319 0.00186588
1.27472 0.5 0.0306319 0.00186899
1.17463 0.5 -0.497015 0.00258863
1.17463 0.5 0.497015 0.002513
1.15837 0.5 0.534151 0.00262638
1.11376 0.5 0.62266 0.00294686
1.11376 0.5 -0.623806 0.00307006
1.13882 0.5 -0.578501 0.00286976
1.13882 0.5 0.578501 0.00278942
0.67013 0.5 1.0875 0.00747858
0.67013 0.5 -1.0875 0.00857492
1.27472 0.5 -0.0918959 0.00187836
1.27472 0.5 0.0918959 0.00187823
1.25401 0.5 -0.249197 0.00201701
1.25401 0.5 0.249197 0.00200961
1.16179 0.5 -0.535284 0.00269864
1.20942 0.5 0.419438 0.00228795
1.20942 0.5 -0.419438 0.0023221
0 0.5 1.28118 0.0115325
0 0.5 -1.28118 0.0138787
0.0124865 0.5 1.28118 0.0123023
0.0124865 0.5 -1.28118 0.0148471
1.27472 0.5 0.15316 0.00189506
1.27472 0.5 -0.15316 0.00190463
0.151149 0.5 -1.275 0.0185945
0.151149 0.5 1.275 0.0148473