# nutMean  POINT_DATA 91132
# x  y  z  nutMean
0 0 0 4.93515e-06
0 0.00368111 0 1.69347e-05
0 0.00749587 0 6.09136e-05
0 0.0114491 0 0.000224918
0 0.0155459 0 0.000594357
0 0.0197915 0 0.00136803
0 0.0241911 0 0.0022928
0 0.0287506 0 0.00298189
0 0.0334755 0 0.00348972
0 0.038372 0 0.00384075
0 0.0434463 0 0.00408564
0 0.0487048 0 0.00427017
0 0.0541543 0 0.00442107
0 0.0598016 0 0.00455475
0 0.0656539 0 0.00468071
0 0.0717187 0 0.00480549
0.075776 0.00184056 0 7.94227e-06
0.075776 0.00558849 3.46945e-18 1.21522e-05
0.075776 0.00947249 0 5.67326e-05
0.075776 0.0134975 0 0.000257008
0.075776 0.0176687 0 0.000714222
0 0.0780037 0 0.00493372
0.075776 0.0219913 0 0.00143562
0.075776 0.0264709 -3.46945e-18 0.00244041
0.075776 0.031113 3.46945e-18 0.00371731
0.075776 0.0359238 0 0.00523194
0 0.0845169 0 0.0050671
0.075776 0.0409091 0 0.00693911
0.075776 0.0460755 0 0.0087877
0 0.0912666 0 0.00520508
0.075776 0.0514296 0 0.0107248
0.075776 0.0569779 0 0.0126988
0 0.0982613 0 0.00534653
0.075776 0.0627277 -3.46945e-18 0.0146585
0.075776 0.0686863 0 0.0165573
0 0.10551 0 0.00549076
0.075776 0.0748612 0 0.0180045
0.075776 0.0812603 0 0.0190379
0 0.113022 0 0.00563723
0.075776 0.0878918 0 0.0198314
0 0.120806 0 0.0057853
0.075776 0.0947639 0 0.0206834
0.075776 0.101886 -3.46945e-18 0.021615
0 0.128874 0 0.00593472
0.075776 0.109266 0 0.0226465
0 0.137234 0 0.00609125
0.075776 0.116914 0 0.023809
0 0.145897 0 0.00626925
0.075776 0.12484 0 0.025124
0.151552 0 0 0
0.151552 0.00368111 0 6.62522e-06
0.151552 0.00749587 0 2.30403e-05
0.151552 0.0114491 0 9.76505e-05
0.151552 0.0155459 0 0.000297392
0.151552 0.0197915 0 0.000667672
0.075776 0.133054 -3.46945e-18 0.026514
0.151552 0.0241911 0 0.00122931
0.151552 0.0287506 0 0.00199134
0 0.154876 0 0.00647638
0.151552 0.0334755 0 0.00294554
0.151552 0.038372 0 0.00407402
0.151552 0.0434463 0 0.00535337
0.151552 0.0487048 0 0.00675687
0.075776 0.141565 0 0.0277259
0.151552 0.0541543 0 0.00825608
0.151552 0.0598016 0 0.00982186
0 0.16418 0 0.00670549
0.151552 0.0656539 0 0.0114254
0.151552 0.0717187 0 0.0129554
0.075776 0.150387 -3.46945e-18 0.0286096
0.151552 0.0780037 0 0.0143196
0.151552 0.0845169 0 0.0155605
0 0.173822 0 0.00694851
0.075776 0.159528 -3.46945e-18 0.0291151
0.151552 0.0912666 0 0.0167819
0.151552 0.0982613 0 0.0180494
0 0.183814 0 0.00720372
0.151552 0.10551 0 0.0193604
0.075776 0.169001 0 0.0292165
0.151552 0.113022 0 0.0207161
0.151552 0.120806 0 0.0221184
0 0.194169 0 0.00747156
0.075776 0.178818 3.46945e-18 0.0285636
0.151552 0.128874 0 0.0235438
0.075776 0.188991 0 0.0268625
0.151552 0.137234 0 0.0249043
0 0.2049 0 0.007768
0.151552 0.145897 0 0.026096
0.075776 0.199534 0 0.0250765
0 0.21602 0 0.00812076
0.151552 0.154876 0 0.0270658
0.219992 0.00184055 0 2.03507e-06
0.219992 0.00558849 -3.46945e-18 4.89782e-06
0.219992 0.00947248 3.46945e-18 2.01332e-05
0.219992 0.0134975 -3.46945e-18 6.58399e-05
0.219992 0.0176687 3.46945e-18 0.000181456
0.219992 0.0219913 3.46945e-18 0.000402041
0.219993 0.0264709 0 0.000748191
0.219992 0.031113 -3.46945e-18 0.00122671
0.219992 0.0359237 3.46945e-18 0.00184137
0.151552 0.16418 0 0.0277834
0.075776 0.21046 3.46945e-18 0.0236284
0.219992 0.0409092 0 0.00259302
0.219992 0.0460755 0 0.00347967
0.219993 0.0514296 0 0.00449649
0.219992 0.0569779 0 0.00563555
0 0.227544 0 0.00853327
0.219992 0.0627277 0 0.00688752
0.219992 0.0686863 -3.46945e-18 0.00824128
0.151552 0.173822 0 0.0281078
0.219992 0.0748612 3.46945e-18 0.00968339
0.075776 0.221782 0 0.0226429
0.219992 0.0812603 0 0.0111985
0.219992 0.0878917 0 0.0127696
0.151552 0.183814 0 0.0278684
7.47806e-17 0.239487 0 0.00898826
0.219993 0.0947639 0 0.0143773
0.219992 0.101886 0 0.015998
0.075776 0.233515 3.46945e-18 0.0219772
0.219993 0.109266 0 0.0176077
0.151552 0.194169 0 0.0272621
0.219992 0.116914 3.46945e-18 0.019187
0 0.251863 0 0.00947684
0.219992 0.12484 -3.46945e-18 0.0207142
0.151552 0.2049 0 0.0265891
0.075776 0.245675 0 0.0215116
0.219992 0.133054 0 0.0221723
0.219992 0.141566 0 0.0235453
0.151552 0.21602 0 0.0259807
0 0.264688 0 0.00999848
0.219993 0.150387 0 0.0248211
0.075776 0.258275 3.46945e-18 0.0212181
0.219992 0.159528 0 0.025993
0.151552 0.227544 0 0.0254908
0.219993 0.169001 -3.46945e-18 0.0270214
0 0.27798 0 0.0105527
0.075776 0.271334 0 0.0210689
0.151552 0.239487 3.70071e-18 0.0250714
0.219992 0.178818 0 0.0277499
0.288433 0 0 0
0.288433 0.00368111 0 2.79782e-06
0.288433 0.00749587 0 1.10521e-05
0.288433 0.0114491 0 3.55583e-05
0.288433 0.0155459 0 9.5302e-05
0.288433 0.0197915 0 0.0002216
0.288433 0.0241911 0 0.000438912
0.288433 0.0287506 0 0.000760692
0.219993 0.188991 0 0.0282737
0.288433 0.0334755 0 0.00119586
0.288433 0.038372 0 0.00174777
0.288433 0.0434463 0 0.00241745
7.47806e-17 0.291753 0 0.0111409
0.288433 0.0487048 0 0.00320371
0.288433 0.0541543 0 0.00410316
0.151552 0.251863 0 0.024688
0.288433 0.0598016 0 0.00511055
0.075776 0.284867 0 0.0210495
0.288433 0.0656539 0 0.00621866
0.219992 0.199534 0 0.0286374
0.288433 0.0717187 0 0.00741785
0.288433 0.0780037 0 0.00869599
0.288433 0.0845169 0 0.010038
0.288433 0.0912666 0 0.0114252
0.219992 0.21046 0 0.0286713
0.288433 0.0982613 0 0.0126414
0.151552 0.264688 3.70071e-18 0.0243594
0 0.306027 0 0.0117797
0.288433 0.10551 0 0.0135991
0.075776 0.29889 -3.46945e-18 0.0211601
0.288433 0.113022 0 0.0145253
0.219992 0.221782 0 0.0285442
0.288433 0.120806 0 0.0154461
0.288433 0.128874 0 0.0162635
0.151552 0.27798 0 0.0241253
0.288433 0.137234 0 0.016989
0 0.320819 0 0.0125534
0.219993 0.233515 0 0.0283116
0.075776 0.313423 3.46945e-18 0.0214656
0.288433 0.145897 0 0.0176694
0.288433 0.154876 0 0.0183184
0.151552 0.291753 0 0.0239338
0.219993 0.245675 0 0.0279758
0.288433 0.16418 0 0.0189166
0 0.336148 0 0.0136251
0.288433 0.173822 0 0.0194103
0.075776 0.328484 0 0.022323
0.219992 0.258275 0 0.0275378
0.151552 0.306027 0 0.0237422
0.288433 0.183814 0 0.0197816
0.288433 0.194169 0 0.0200627
0.219993 0.271334 0 0.0271208
0.350249 0.00184056 0 8.39553e-07
0.350249 0.00558849 3.46945e-18 3.5172e-06
0.350249 0.00947248 0 1.58754e-05
0.350249 0.0134975 3.46945e-18 4.14772e-05
0.350249 0.0176687 -3.46945e-18 9.66035e-05
0.350249 0.0219913 0 0.000216614
0.350249 0.0264709 -3.46945e-18 0.000408828
0.350249 0.031113 0 0.000692374
0 0.352034 0 0.0145004
0.350249 0.0359238 3.46945e-18 0.0010727
0.075776 0.344091 0 0.024182
0.350249 0.0409091 3.46945e-18 0.00155301
0.350249 0.0460755 -3.46945e-18 0.00213506
0.288433 0.2049 0 0.0202228
0.350249 0.0514296 0 0.00281888
0.151552 0.320819 0 0.0236703
0.350249 0.0569779 0 0.00360322
0.350249 0.0627277 0 0.00448505
0.350249 0.0686863 0 0.00545849
0.350249 0.0748612 0 0.00651512
0.350249 0.0812603 0 0.00764325
0.219992 0.284867 0 0.026793
0.288433 0.21602 0 0.0202606
0.350249 0.0878918 0 0.00882629
0.350249 0.0947639 0 0.0100429
0.350249 0.101886 0 0.010521
0.350249 0.109266 3.46945e-18 0.0107398
0.288433 0.227544 0 0.0202292
0.075776 0.360265 0 0.0240023
0 0.368496 0 0.0146833
0.151552 0.336148 0 0.0239372
0.350249 0.116914 -3.46945e-18 0.0111349
0.219992 0.29889 -3.46945e-18 0.0263002
0.370854 0.0241911 -3.08149e-33 0.000319945
0.350249 0.12484 3.46945e-18 0.0114091
0.350249 0.133054 0 0.0115181
0.288433 0.239487 -9.25154e-19 0.0201406
0.350249 0.141565 3.46945e-18 0.0115812
0.350249 0.150387 0 0.011685
0.288433 0.251863 0 0.0199934
0.219992 0.313423 0 0.0256718
0.151552 0.352034 0 0.0239319
0.075776 0.377026 -3.46945e-18 0.0228101
0.350249 0.159528 0 0.0118136
0 0.385557 0 0.014385
0.350249 0.169001 3.46945e-18 0.0119509
0.288433 0.264688 0 0.0198145
0.350249 0.178818 3.46945e-18 0.0120874
0.219992 0.328484 0 0.0249496
0.350249 0.188991 0 0.0122206
0.151552 0.368496 0 0.0231538
0.288433 0.27798 3.70071e-18 0.019648
0.075776 0.394396 -3.46945e-18 0.0212748
0.350249 0.199535 3.46945e-18 0.012348
7.47806e-17 0.403236 0 0.0141009
0.219992 0.344091 -3.46945e-18 0.0241899
0.350249 0.21046 3.46945e-18 0.0124682
0.288433 0.291753 0 0.0194498
0.412065 9.08189e-19 3.08149e-33 2.33796e-22
0.412065 0.00368111 3.08149e-33 2.12448e-06
0.412065 0.00749587 3.08149e-33 9.9486e-06
0.412065 0.0114491 0 2.78546e-05
0.412065 0.0155459 0 6.21137e-05
0.412065 0.0197915 0 0.000132528
0.412065 0.0241911 -3.08149e-33 0.000260462
0.412065 0.0264709 0 0.000359759
0.412065 0.0287506 0 0.000459055
0.412065 0.0334755 3.08149e-33 0.000738718
0.412065 0.038372 3.08149e-33 0.00110629
0.151552 0.385557 0 0.0220056
0.412065 0.0434463 0 0.0015645
0.350249 0.221782 3.46945e-18 0.0125798
0.412065 0.0487048 0 0.00211453
0.412065 0.0541543 0 0.00275607
0.412065 0.0569779 0 0.00312159
0.412065 0.0598016 0 0.00348711
0.412065 0.0656539 3.08149e-33 0.00430354
0.412065 0.0717187 3.08149e-33 0.00519849
0.075776 0.412396 -3.46945e-18 0.0207646
0.412065 0.0780037 -2.31298e-18 0.00616169
0.288433 0.306027 0 0.0191667
0.412065 0.0845169 2.31112e-33 0.00717838
0.350249 0.233515 0 0.0126799
0 0.421557 0 0.0141038
0.412065 0.0912666 1.54074e-33 0.00808147
0.219992 0.360265 0 0.0233777
0.412065 0.0982613 0 0.00859893
0.412065 0.10551 0 0.00880683
0.412065 0.113022 -2.31298e-18 0.00899762
0.350249 0.245675 3.46945e-18 0.012765
0.412065 0.120806 0 0.00920031
0.151552 0.403236 0 0.0210109
0.288433 0.320819 0 0.0188166
0.412065 0.128874 -2.31298e-18 0.00933069
0.412065 0.137234 0 0.00940895
0.350249 0.258275 3.46945e-18 0.0128294
0.219993 0.377026 0 0.0224631
0.412065 0.145897 -2.31298e-18 0.00948651
0.075776 0.43105 -3.46945e-18 0.0207031
0.412065 0.154876 -2.31298e-18 0.00957983
0 0.440544 0 0.014208
0.288433 0.336148 0 0.0184245
0.350249 0.271334 0 0.0128672
0.412065 0.16418 -2.31298e-18 0.00968052
0.412065 0.173822 -2.31298e-18 0.00978239
0.151552 0.421557 0 0.0204067
0.412065 0.183814 -2.31298e-18 0.00988244
0.350249 0.284866 3.46945e-18 0.0128778
0.219992 0.394397 -3.46945e-18 0.0214797
0.288433 0.352034 3.70071e-18 0.0180006
0.412065 0.194169 0 0.00997945
0.075776 0.450382 -3.46945e-18 0.0207263
0.412065 0.2049 -2.31298e-18 0.0100725
0 0.46022 0 0.0143186
0.350249 0.29889 -3.46945e-18 0.0128635
0.412065 0.21602 0 0.0101607
0.151552 0.440544 0 0.0199927
0.219993 0.412397 3.46945e-18 0.0205256
0.467897 0.00184056 3.46945e-18 6.11473e-07
0.467897 0.00558849 3.46945e-18 3.53726e-06
0.288433 0.368496 0 0.0175276
0.467897 0.00947248 0 1.68297e-05
0.467897 0.0134975 3.46945e-18 3.73512e-05
0.467897 0.0176687 0 7.39899e-05
0.467897 0.0219913 0 0.000146266
0.467897 0.0264709 0 0.000277431
0.467897 0.031113 0 0.000470357
0.467897 0.0359238 3.46945e-18 0.000739503
0.467897 0.038372 0 0.000952869
0.467897 0.0409092 0 0.00108875
0.350249 0.313423 3.46945e-18 0.0128253
0.467897 0.0460756 3.46945e-18 0.00152017
0.467897 0.0514296 0 0.00203455
0.412065 0.227544 -2.31298e-18 0.0102429
0.467897 0.0569779 0 0.00263103
0.467897 0.0627277 3.46945e-18 0.00330677
0.467897 0.0686863 3.46945e-18 0.00405699
0.467897 0.0748612 0 0.00487323
0.467897 0.0812603 0 0.00574299
0.467897 0.0878917 0 0.00664815
0.075776 0.470415 0 0.0207706
0.412065 0.239487 -2.31298e-18 0.0103173
0.467897 0.0947639 -3.46945e-18 0.00699691
0.467897 0.101886 0 0.00706916
0.350249 0.328483 3.46945e-18 0.0127657
0.467897 0.109266 0 0.00715114
0 0.48061 0 0.0144287
0.288433 0.385557 0 0.0169983
0.467897 0.116914 -3.46945e-18 0.00723455
0.412065 0.251863 -2.31298e-18 0.0103817
0.219992 0.43105 -3.46945e-18 0.0196828
0.467897 0.12484 0 0.00731084
0.151552 0.46022 0 0.0196674
0.467897 0.133054 0 0.00738136
0.467897 0.141566 0 0.00745278
0.412065 0.264688 -2.31298e-18 0.0104333
0.350249 0.344091 0 0.0126871
0.467897 0.150387 3.46945e-18 0.00752544
0.467897 0.154876 0 0.00806605
0.467897 0.159528 0 0.00759681
0.288433 0.403236 0 0.0164445
0.075776 0.491175 0 0.0208469
0.412065 0.27798 -2.31298e-18 0.0104708
0.467897 0.169001 0 0.00766673
0.467897 0.178818 3.46945e-18 0.00773517
0.219992 0.450382 -3.46945e-18 0.0189681
7.47806e-17 0.501741 0 0.0145156
0.350249 0.360265 0 0.0125888
0.151552 0.48061 3.70071e-18 0.0194041
0.467897 0.188992 0 0.00780197
0.412065 0.291753 0 0.0104939
0.467897 0.199534 -3.46945e-18 0.00786713
0.288433 0.421557 0 0.0159145
0.467897 0.21046 0 0.00793053
0.412065 0.306027 0 0.0105027
0.350249 0.377026 -3.46945e-18 0.0124643
0.467897 0.221782 -3.46945e-18 0.00799186
0.075776 0.51269 3.46945e-18 0.0208424
0.219992 0.470415 3.46945e-18 0.0183682
0.412065 0.320819 -2.31298e-18 0.0104971
0.467897 0.233515 3.46945e-18 0.00805075
7.47806e-17 0.523639 0 0.0145497
0.523729 0 0 0
0.523729 0.00368111 0 2.0571e-06
0.523729 0.00749587 0 1.08223e-05
0.523729 0.0114491 0 2.83381e-05
0.523729 0.0155459 0 5.47421e-05
0.523729 0.0197915 3.08149e-33 0.000100447
0.151552 0.501741 0 0.019162
0.523729 0.0241911 0 0.00018725
0.523729 0.0287506 0 0.000327438
0.523729 0.0334755 0 0.000527809
0.523729 0.038372 -3.08149e-33 0.000799449
0.523729 0.0434463 0 0.00114578
0.523729 0.0487048 0 0.00156826
0.523729 0.0541543 0 0.00206678
0.288433 0.440544 0 0.01544
0.523729 0.0598016 0 0.00263938
0.350249 0.394397 0 0.0123083
0.523729 0.0656539 0 0.00328195
0.467897 0.245675 0 0.00810685
0.523729 0.0717187 0 0.0039877
0.523729 0.0780037 0 0.00474596
0.523729 0.0845169 0 0.00548076
0.523729 0.0912666 0 0.00593089
0.412065 0.336148 0 0.0104776
0.523729 0.0982613 0 0.0060742
0.523729 0.10551 -2.31298e-18 0.00615086
0.467897 0.258275 0 0.00816008
0.523729 0.113022 0 0.00622786
0.523729 0.120806 -3.08149e-33 0.00629988
0.219992 0.491176 3.46945e-18 0.0178435
0.523729 0.12484 0 0.00633298
0.523729 0.128874 -2.31298e-18 0.00636608
0.075776 0.534986 3.46945e-18 0.0207694
0.467897 0.271334 3.46945e-18 0.00821086
0.350249 0.412396 3.46945e-18 0.0121257
0.523729 0.137234 0 0.00642914
0.412065 0.352034 -2.31298e-18 0.0104442
0.288433 0.46022 0 0.0150294
0.523729 0.145897 0 0.00649126
0.151552 0.523639 0 0.0189086
0.495813 0.227544 -1.54074e-33 0.0076478
0.523729 0.154876 -3.08149e-33 0.00655227
0 0.546332 0 0.0145383
0.523729 0.159528 0 0.00658201
0.467897 0.284867 0 0.00825929
0.523729 0.16418 -2.31298e-18 0.00661174
0.523729 0.173822 0 0.00666976
0.412065 0.368496 0 0.0103947
0.523729 0.183814 0 0.00672641
0.467897 0.29889 3.46945e-18 0.00830349
0.350249 0.431051 0 0.011931
0.219993 0.51269 3.46945e-18 0.0173696
0.523729 0.194169 0 0.00678174
0.288433 0.48061 0 0.0146747
0.523729 0.2049 0 0.00683582
0.467897 0.313423 0 0.00834177
0.075776 0.55809 0 0.0206486
0.412065 0.385557 0 0.0103261
0.523729 0.21602 -3.08149e-33 0.00688863
0.151552 0.546332 0 0.0186495
0 0.569849 0 0.0144927
0.350249 0.450382 3.46945e-18 0.0117404
0.467897 0.328483 -3.46945e-18 0.00837268
0.574156 0.00184055 0 4.92333e-07
0.574156 0.00558849 0 3.58966e-06
0.574156 0.00947248 3.46945e-18 1.92491e-05
0.574156 0.0134975 -3.46945e-18 3.97594e-05
0.574157 0.0176687 3.46945e-18 6.79908e-05
0.574156 0.0219913 0 0.000114811
0.574156 0.0264708 0 0.00021372
0.574157 0.031113 3.46945e-18 0.000354343
0.574156 0.0359237 3.46945e-18 0.000557154
0.574157 0.0409092 3.46945e-18 0.000827436
0.523729 0.239487 0 0.00698996
0.574156 0.0460755 -3.46945e-18 0.00116757
0.574156 0.0514296 0 0.00157817
0.412065 0.403236 0 0.0102377
0.574157 0.0569779 0 0.00205827
0.574156 0.0627277 0 0.00260465
0.574156 0.0686863 0 0.00321183
0.219992 0.534985 0 0.0169398
0.288433 0.501741 3.70071e-18 0.0143615
0.574156 0.0748612 0 0.00387133
0.574156 0.0812603 3.46945e-18 0.00456997
0.467897 0.344091 0 0.008395
0.574156 0.0878917 0 0.00505557
0.523729 0.251863 0 0.00703832
0.574156 0.0947639 -3.46945e-18 0.00513966
0.574156 0.101886 3.46945e-18 0.00521655
0.574156 0.109266 -3.46945e-18 0.00529212
0.574156 0.116914 3.46945e-18 0.0053599
0.412065 0.416977 1.54074e-33 0.0101604
0.350249 0.470415 0 0.0115668
0.523729 0.264688 0 0.00708525
0.075776 0.582034 0 0.0204952
0.574156 0.12484 3.46945e-18 0.00542149
0.574156 0.133054 0 0.00547877
0.412065 0.421557 3.08149e-33 0.0101346
0.151552 0.569849 0 0.0183926
0.467897 0.360265 -3.46945e-18 0.00840802
0.574156 0.141565 -3.46945e-18 0.00553281
0.523729 0.27798 0 0.00713083
0.574156 0.150386 0 0.00558444
0 0.594219 0 0.0144211
0.574157 0.159528 0 0.00563421
0.574156 0.16418 0 0.00583872
0.288433 0.523639 -9.25154e-19 0.0140807
0.574156 0.169001 -3.46945e-18 0.00568244
0.523729 0.291753 0 0.00717444
0.219993 0.558091 3.46945e-18 0.0165511
0.467897 0.377027 -3.46945e-18 0.00841118
0.574156 0.178818 0 0.00572935
0.412065 0.440544 -2.31298e-18 0.0100253
0.350249 0.491175 3.46945e-18 0.0114158
0.574156 0.188992 0 0.00577514
0.523729 0.306027 2.31298e-18 0.0072149
0.574156 0.199534 0 0.00582003
0.574157 0.21046 -3.46945e-18 0.00586418
0.075776 0.606847 0 0.02032
0.467897 0.394397 0 0.00840369
0.151552 0.594219 0 0.0181434
0.523729 0.320819 0 0.00725109
0.574156 0.221782 -3.46945e-18 0.00590771
0.412065 0.46022 -2.31298e-18 0.00991889
0.288433 0.546332 0 0.0138288
0 0.619475 0 0.0143297
0.574156 0.233515 3.46945e-18 0.00595071
0.350249 0.51269 0 0.0112848
0.219992 0.582034 3.46945e-18 0.0162039
0.523729 0.336148 0 0.00728197
0.467897 0.412396 -3.46945e-18 0.0083851
0.574156 0.245675 3.46945e-18 0.00599329
0.624584 0 0 0
0.624584 0.00368111 0 2.04466e-06
0.624584 0.00749587 0 1.21647e-05
0.624584 0.0114491 0 3.13895e-05
0.624584 0.0155459 0 5.51454e-05
0.624584 0.0197915 0 8.84338e-05
0.624584 0.0241911 3.08149e-33 0.000149647
0.624584 0.0287506 0 0.000255077
0.624584 0.0334755 0 0.000409477
0.624584 0.038372 0 0.000620665
0.624584 0.0434463 0 0.000895842
0.624584 0.0487048 0 0.00123678
0.624584 0.0541543 0 0.00164328
0.624584 0.0598016 0 0.0021132
0.624584 0.0656539 0 0.00264205
0.624584 0.0717187 0 0.00322265
0.624584 0.0780037 0 0.00384418
0.574157 0.258275 -3.46945e-18 0.00603555
0.624584 0.0845169 0 0.00432686
0.523729 0.352034 0 0.00730676
0.624584 0.0912666 0 0.00453122
0.624584 0.0982613 0 0.00461057
0.412065 0.48061 -2.31298e-18 0.00982229
0.624584 0.10551 0 0.00468486
0.624584 0.113022 -2.31298e-18 0.00475305
0.574156 0.271334 -3.46945e-18 0.00607755
0.624584 0.120806 0 0.00481458
0.467897 0.43105 3.46945e-18 0.00835651
0.075776 0.632561 0 0.0201303
0.624584 0.128874 0 0.00487107
0.151552 0.619475 0 0.0179048
0.288433 0.569849 0 0.0136041
0.350249 0.534985 0 0.011171
0.624584 0.137234 -2.31298e-18 0.00492372
0.523729 0.368496 0 0.00732493
0.574156 0.284867 0 0.00611908
0.624584 0.145897 0 0.00497333
0.467897 0.440544 0 0.00867513
0.624584 0.154876 0 0.0050205
0.219992 0.606847 0 0.0158953
0 0.645647 0 0.0142233
0.624584 0.16418 -3.08149e-33 0.0050657
0.574156 0.29889 3.46945e-18 0.0061596
0.624584 0.173822 0 0.00510926
0.412065 0.501741 -2.31298e-18 0.00973824
0.467897 0.450382 -3.46945e-18 0.00832129
0.523729 0.385557 -3.08149e-33 0.007336
0.624584 0.183814 0 0.00515147
0.624584 0.194169 0 0.00519258
0.574157 0.313423 -3.46945e-18 0.00619843
0.624584 0.2049 0 0.00523282
0.350249 0.558091 0 0.0110724
0.288433 0.594219 0 0.0134055
0.624584 0.21602 0 0.00527235
0.523729 0.403236 -3.70071e-18 0.00733946
0.574156 0.328483 -3.46945e-18 0.00623481
0.151552 0.645647 0 0.017678
0.467897 0.470415 0 0.00828428
0.075776 0.659208 0 0.0199314
0.624584 0.227544 0 0.00531132
0.412065 0.523639 -2.31298e-18 0.00966654
0.523729 0.41545 -1.54074e-33 0.00733673
0.624584 0.239487 3.70071e-18 0.00534988
0.574156 0.344091 3.46945e-18 0.00626803
0.219992 0.632561 0 0.0156221
0.67013 0.00184055 -3.46945e-18 4.10788e-07
0.67013 0.00558849 -3.46945e-18 3.68552e-06
0.67013 0.00947248 3.46945e-18 2.20438e-05
0.67013 0.0134975 -3.46945e-18 4.4276e-05
0.67013 0.0176687 3.46945e-18 6.84012e-05
0.67013 0.0219913 0 0.000102896
0.67013 0.0264708 0 0.000168949
0.67013 0.031113 0 0.000286839
0.67013 0.0359237 0 0.000445235
0.67013 0.0409092 3.46945e-18 0.000661601
0.67013 0.0460755 3.46945e-18 0.000939197
0.67013 0.0514296 0 0.00127882
0.523729 0.421557 3.08149e-33 0.00733537
0.67013 0.0569779 0 0.00167925
0 0.67277 0 0.0141058
0.67013 0.0627277 -3.46945e-18 0.00213734
0.624584 0.251863 0 0.00538814
0.67013 0.0686863 0 0.00264694
0.67013 0.0748612 0 0.00319947
0.67013 0.0812603 0 0.00378195
0.67013 0.0878918 0 0.00395928
0.67013 0.0947639 0 0.00403947
0.574156 0.360265 3.46945e-18 0.00629757
0.67013 0.101886 0 0.00411584
0.523729 0.431051 0 0.00733016
0.624584 0.264688 0 0.00542617
0.467897 0.491175 3.46945e-18 0.00825022
0.67013 0.109266 3.46945e-18 0.0041844
0.350249 0.582034 0 0.0109872
0.67013 0.116914 0 0.00424566
0.67013 0.12484 0 0.00430151
0.67013 0.133054 0 0.00435308
0.288433 0.619475 0 0.013231
0.624584 0.27798 2.31298e-18 0.00546393
0.412065 0.546332 -2.31298e-18 0.00960643
0.523729 0.440544 -3.08149e-33 0.00732495
0.67013 0.141566 0 0.00440113
0.685312 0.0241911 -7.70372e-34 0.000135346
0.685312 0.0434463 -7.70372e-34 0.000785139
0.67013 0.150386 0 0.00444621
0.574157 0.377027 -3.46945e-18 0.0063231
0.67013 0.159528 -3.46945e-18 0.00448883
0.624584 0.291753 0 0.0055012
0.151552 0.67277 0 0.0174634
0.075776 0.686823 0 0.0197272
0.67013 0.169001 -3.46945e-18 0.00452943
0.67013 0.178818 0 0.00456839
0.467897 0.51269 0 0.00822198
0.685312 0.113022 -7.70372e-34 0.00414582
0.219992 0.659208 0 0.015381
0.624584 0.306027 0 0.0055376
0.67013 0.188992 0 0.00460604
0.574157 0.394397 0 0.00634429
0.523729 0.46022 0 0.00731073
0.685312 0.137234 -7.70372e-34 0.00430756
0.67013 0.199535 0 0.00464263
0.350249 0.606847 0 0.0109143
0 0.700877 0 0.0139804
0.624584 0.320819 0 0.00557262
0.67013 0.21046 0 0.00467841
0.412065 0.569849 -2.31298e-18 0.00955703
0.67013 0.221782 0 0.00471356
0.574156 0.412396 0 0.00636074
0.288433 0.645647 0 0.013079
0.624584 0.336148 0 0.00560575
0.67013 0.233516 -3.46945e-18 0.00474827
0.467897 0.534986 0 0.0082009
0.523729 0.48061 0 0.00729598
0.624584 0.344091 0 0.00562114
0.67013 0.245675 0 0.00478268
0.715676 4.54095e-19 0 6.28093e-23
0.715676 0.00368111 -9.25187e-19 2.05311e-06
0.715676 0.00749587 -9.25187e-19 1.35849e-05
0.715676 0.0114491 -9.25187e-19 3.51115e-05
0.715676 0.0155459 -9.25187e-19 5.84337e-05
0.715676 0.0197915 -9.25187e-19 8.53804e-05
0.715676 0.0241911 -9.25187e-19 0.000128195
0.715676 0.0287506 0 0.000209439
0.715676 0.0334755 0 0.000335105
0.715676 0.038372 -9.25187e-19 0.000504976
0.624584 0.352034 3.08149e-33 0.00563653
0.715676 0.0434463 -9.25187e-19 0.000729787
0.151552 0.700877 0 0.0172607
0.715676 0.0487048 0 0.00101295
0.715676 0.0541543 0 0.00135436
0.574156 0.43105 3.46945e-18 0.00637239
0.715676 0.0598016 -9.25187e-19 0.00175185
0.67013 0.258275 3.46945e-18 0.00481691
0.715676 0.0656539 -9.25187e-19 0.00220072
0.715676 0.0717187 -9.25187e-19 0.00269344
0.075776 0.715441 0 0.0195207
0.715676 0.0780037 0 0.00320121
0.715676 0.0845169 0 0.00352162
0.219992 0.686824 0 0.0151681
0.715676 0.0912666 0 0.00363041
0.715676 0.0982613 0 0.00370799
0.67013 0.271334 3.46945e-18 0.00485098
0.350249 0.632561 -3.46945e-18 0.0108536
0.412065 0.594219 -2.31298e-18 0.00951752
0.715676 0.10551 0 0.00377898
0.715676 0.113022 0 0.00384221
0.624584 0.368496 0 0.00566461
0.523729 0.501741 3.70071e-18 0.00728362
0.715676 0.120806 0 0.00389918
0.715676 0.128874 0 0.0039513
0.67013 0.284867 0 0.00488485
0.467897 0.558091 3.46945e-18 0.00818733
0.715676 0.137234 0 0.00399949
0.574156 0.450382 3.46945e-18 0.0063799
0 0.730005 0 0.01385
0.715676 0.145897 0 0.00404437
0.288433 0.67277 0 0.0129476
0.715676 0.154876 0 0.00408646
0.67013 0.29889 -3.46945e-18 0.0049184
0.624584 0.385557 0 0.00568972
0.715676 0.16418 0 0.00412622
0.715676 0.173822 0 0.00416406
0.715676 0.183814 0 0.00420032
0.67013 0.313423 -3.46945e-18 0.00495139
0.523729 0.523639 3.70071e-18 0.00727567
0.715676 0.194169 0 0.00423529
0.574156 0.470415 0 0.00638475
0.624584 0.403236 -3.70071e-18 0.00571157
0.743101 0.0241911 -7.70372e-34 0.000124808
0.412065 0.619475 -2.31298e-18 0.00948747
0.715676 0.2049 0 0.00426924
0.151552 0.730005 0 0.0170699
0.67013 0.328483 0 0.00498351
0.350249 0.659208 0 0.0108048
0.467897 0.582034 0 0.00818101
0.715676 0.21602 0 0.00430237
0.219992 0.715441 0 0.01498
0.075776 0.745098 0 0.0193147
0.715676 0.227544 0 0.00433488
0.67013 0.344091 0 0.00501443
0.624584 0.421557 0 0.00572996
0.743101 0.128874 -7.70372e-34 0.00374556
0.715676 0.239487 0 0.00436693
0.574156 0.491175 3.46945e-18 0.00638907
0.756814 0.00184056 -3.46945e-18 3.4908e-07
0.523729 0.546332 0 0.00727324
0.756813 0.00558849 -3.46945e-18 3.76663e-06
0.756813 0.00947248 -3.46945e-18 2.47631e-05
0.756813 0.0134975 -3.46945e-18 4.91437e-05
0.756814 0.0155459 0 6.06585e-05
0.756814 0.0176687 0 7.16787e-05
0.756814 0.0219913 3.46945e-18 9.85772e-05
0.756814 0.0264709 3.46945e-18 0.000143234
0.756813 0.0311131 3.46945e-18 0.000240821
0.756813 0.0359238 -3.46945e-18 0.000371022
0.288433 0.700877 0 0.0128351
0.756813 0.0409092 -3.46945e-18 0.000547523
0.756813 0.0460755 0 0.000778806
0.756813 0.0514296 0 0.00106583
0.715676 0.251863 0 0.00439865
0.756814 0.0569779 0 0.00140764
0.756814 0.0627277 0 0.00180086
0.756814 0.0686863 0 0.00223936
0 0.76019 0 0.0137171
0.756813 0.0748612 0 0.00271392
0.67013 0.360265 -3.46945e-18 0.00504386
0.756814 0.0812603 0 0.00314218
0.756814 0.0878917 0 0.00324238
0.756813 0.0947639 -3.46945e-18 0.00332206
0.715676 0.264688 0 0.00443011
0.756814 0.101886 -3.46945e-18 0.0033962
0.624584 0.440544 0 0.00574505
0.756814 0.109266 0 0.00346127
0.756814 0.116914 0 0.00351945
0.412065 0.645647 0 0.00946677
0.467897 0.606847 -3.46945e-18 0.00818161
0.756814 0.120806 0 0.0035914
0.756813 0.12484 3.46945e-18 0.00357222
0.715676 0.27798 -9.25187e-19 0.00446134
0.756813 0.133054 -3.46945e-18 0.00362066
0.67013 0.377027 0 0.00507154
0.756814 0.137234 0 0.00369
0.574157 0.51269 3.46945e-18 0.00639499
0.756813 0.141566 3.46945e-18 0.00366552
0.685312 0.352034 -7.70372e-34 0.0049525
0.743101 0.2049 -7.70372e-34 0.0040571
0.350249 0.686824 0 0.0107679
0.756813 0.150386 -3.46945e-18 0.00370725
0.756814 0.154876 0 0.00377501
0.715676 0.291753 3.70074e-18 0.0044923
0.756814 0.159528 3.46945e-18 0.00374636
0.523729 0.569849 0 0.00727675
0.72743 0.264688 0 0.00433641
0.756814 0.16418 0 0.00381365
0.151552 0.76019 3.70071e-18 0.0168908
0.756813 0.169001 -3.46945e-18 0.00378327
0.624584 0.46022 0 0.00575748
0.219993 0.745098 0 0.0148141
0.67013 0.394396 -3.46945e-18 0.00509726
0.756813 0.178818 -3.46945e-18 0.00381835
0.715676 0.306027 -9.25187e-19 0.00452289
0.075776 0.775831 0 0.0191115
0.756814 0.188992 0 0.0038519
0.756814 0.199535 0 0.00388421
0.715676 0.320819 0 0.00455292
0.574156 0.534986 3.46945e-18 0.00640423
0.288433 0.730005 0 0.0127399
0.756814 0.21046 3.46945e-18 0.00391553
0.467897 0.632561 0 0.00818901
0.67013 0.412396 -3.46945e-18 0.00512082
0.624584 0.48061 -3.08149e-33 0.00576853
0.756814 0.221782 0 0.00394605
0.412065 0.67277 -2.31298e-18 0.00945544
0.715676 0.336148 0 0.0045822
0 0.791472 0 0.0135839
0.756813 0.233515 3.46945e-18 0.00397595
0.523729 0.594219 0 0.00728623
0.624584 0.487654 1.54074e-33 0.00577227
0.756814 0.245675 0 0.00400537
0.350249 0.715441 3.46945e-18 0.0107425
0.67013 0.43105 3.46945e-18 0.00514209
0.715676 0.352034 -9.25187e-19 0.00461048
0.797951 9.08189e-19 0 1.09466e-22
0.797951 0.00368111 2.31298e-18 2.0575e-06
0.797951 0.00749587 2.31298e-18 1.49588e-05
0.797951 0.0114491 2.31298e-18 3.89814e-05
0.797951 0.0141803 7.70372e-34 5.49159e-05
0.797951 0.0155459 0 6.28832e-05
0.797951 0.0169611 7.70372e-34 7.06538e-05
0.797951 0.0197915 -3.08149e-33 8.6195e-05
0.797951 0.0219913 0 0.000102114
0.797951 0.0241911 3.08149e-33 0.000118033
0.797951 0.0264709 0 0.00014838
0.797951 0.0287506 -3.08149e-33 0.000178726
0.797951 0.0334755 2.31298e-18 0.000282047
0.797951 0.038372 2.31298e-18 0.000424754
0.797951 0.0434463 2.31298e-18 0.00061156
0.797951 0.0487048 2.31298e-18 0.000850906
0.756814 0.258275 -3.46945e-18 0.00403442
0.797951 0.0541543 2.31298e-18 0.0011432
0.797951 0.0598016 2.31298e-18 0.00148627
0.797951 0.0656539 2.31298e-18 0.00187541
0.574156 0.55809 3.46945e-18 0.0064178
0.624584 0.501741 3.70071e-18 0.00577977
0.797951 0.0717187 2.31298e-18 0.00230276
0.797951 0.0780037 2.31298e-18 0.00270129
0.797951 0.0845169 0 0.00292812
0.797951 0.0912666 0 0.00301916
0.797951 0.0982613 -3.08149e-33 0.00309693
0.756814 0.271334 3.46945e-18 0.00406318
0.797951 0.10551 0 0.00316652
0.715676 0.368496 -9.25187e-19 0.00463756
0.151552 0.791472 3.70071e-18 0.0167238
0.797951 0.113022 0 0.00322815
0.219992 0.775831 3.46945e-18 0.0146684
0.797951 0.118211 7.70372e-34 0.00326513
0.770526 0.239487 -3.08149e-33 0.00393536
0.797951 0.120806 0 0.00328361
0.67013 0.450382 -3.46945e-18 0.0051612
0.797951 0.128874 3.08149e-33 0.00333409
0.467897 0.659208 0 0.0082033
0.756814 0.284867 -3.46945e-18 0.00409167
0.743101 0.320819 -7.70372e-34 0.0043282
0.797951 0.137234 0 0.00338052
0.797951 0.141566 0 0.00340202
0.797951 0.145897 0 0.00342353
0.523729 0.619475 0 0.00730163
0.075776 0.807681 -3.46945e-18 0.0189135
0.797951 0.150387 0 0.00344354
0.797951 0.154876 9.25187e-19 0.00346356
0.715676 0.385557 0 0.00466327
0.412065 0.700877 -2.31298e-18 0.00945349
0.288433 0.76019 0 0.0126606
0.756814 0.29889 0 0.00411988
0.797951 0.16418 0 0.00350107
0.624584 0.523639 3.70071e-18 0.00579275
0.797951 0.167394 7.70372e-34 0.00351286
0.797951 0.173822 0 0.00353644
0.574156 0.582034 0 0.00643621
0.67013 0.470415 0 0.00517861
0.797951 0.183814 -3.08149e-33 0.00357
0.756814 0.313423 0 0.00414774
0.797951 0.194169 0 0.00360205
0.715676 0.403236 3.70074e-18 0.00468743
0.151552 0.807681 0 0.0166464
0.797951 0.197746 -7.70372e-34 0.00361231
0.350249 0.745097 0 0.0107285
0.797951 0.2049 3.08149e-33 0.00363283
0 0.823889 0 0.0134526
0.756813 0.328483 3.46945e-18 0.00417515
0.797951 0.21046 0 0.00364769
0.797951 0.21602 -3.08149e-33 0.00366256
0.797951 0.223703 7.70372e-34 0.0036818
0.797951 0.227544 0 0.00369142
0.624584 0.546332 0 0.00580869
0.715676 0.421557 -9.25187e-19 0.00470994
0.67013 0.491175 3.46945e-18 0.00519529
0.797951 0.231525 7.70372e-34 0.00370081
0.467897 0.686823 0 0.00822469
0.523729 0.645647 0 0.00732302
0.756813 0.344091 0 0.00420198
0.822721 0.120806 7.70372e-34 0.00313594
0.797951 0.239487 -3.08149e-33 0.00371957
0.822721 0.137234 7.70372e-34 0.00323278
0.835106 0.00184055 0 3.01541e-07
0.835106 0.00558849 0 3.81295e-06
0.835106 0.00947248 -3.46945e-18 2.74219e-05
0.835106 0.0134975 -3.46945e-18 5.43891e-05
0.835106 0.0176687 -3.46945e-18 7.60675e-05