# pMean  POINT_DATA 91132
# x  y  z  pMean
0 0 0 0.191907
0 0.00368111 0 0.191642
0 0.00749587 0 0.191072
0 0.0114491 0 0.190518
0 0.0155459 0 0.19002
0 0.0197915 0 0.18949
0 0.0241911 0 0.188893
0 0.0287506 0 0.188236
0 0.0334755 0 0.187532
0 0.038372 0 0.186797
0 0.0434463 0 0.186043
0 0.0487048 0 0.185279
0 0.0541543 0 0.184511
0 0.0598016 0 0.183744
0 0.0656539 0 0.182989
0 0.0717187 0 0.182264
0.075776 0.00184056 0 0.191907
0.075776 0.00558849 3.46945e-18 0.191376
0.075776 0.00947249 0 0.190767
0.075776 0.0134975 0 0.190269
0.075776 0.0176687 0 0.189772
0 0.0780037 0 0.181579
0.075776 0.0219913 0 0.189208
0.075776 0.0264709 -3.46945e-18 0.188578
0.075776 0.031113 3.46945e-18 0.187893
0.075776 0.0359238 0 0.18717
0 0.0845169 0 0.180924
0.075776 0.0409091 0 0.186424
0.075776 0.0460755 0 0.185663
0 0.0912666 0 0.18028
0.075776 0.0514296 0 0.184895
0.075776 0.0569779 0 0.184126
0 0.0982613 0 0.17963
0.075776 0.0627277 -3.46945e-18 0.183362
0.075776 0.0686863 0 0.182617
0 0.10551 0 0.178972
0.075776 0.0748612 0 0.181911
0.075776 0.0812603 0 0.181246
0 0.113022 0 0.178307
0.075776 0.0878918 0 0.180602
0 0.120806 0 0.177636
0.075776 0.0947639 0 0.179957
0.075776 0.101886 -3.46945e-18 0.179303
0 0.128874 0 0.176966
0.075776 0.109266 0 0.178641
0 0.137234 0 0.176308
0.075776 0.116914 0 0.177972
0 0.145897 0 0.175667
0.075776 0.12484 0 0.177299
0.151552 0 0 0.177484
0.151552 0.00368111 0 0.177381
0.151552 0.00749587 0 0.177189
0.151552 0.0114491 0 0.177046
0.151552 0.0155459 0 0.176933
0.151552 0.0197915 0 0.176798
0.075776 0.133054 -3.46945e-18 0.176633
0.151552 0.0241911 0 0.176628
0.151552 0.0287506 0 0.176424
0 0.154876 0 0.175041
0.151552 0.0334755 0 0.176192
0.151552 0.038372 0 0.175942
0.151552 0.0434463 0 0.175678
0.151552 0.0487048 0 0.175406
0.075776 0.141565 0 0.175984
0.151552 0.0541543 0 0.175127
0.151552 0.0598016 0 0.174842
0 0.16418 0 0.174436
0.151552 0.0656539 0 0.174558
0.151552 0.0717187 0 0.174281
0.075776 0.150387 -3.46945e-18 0.17535
0.151552 0.0780037 0 0.174016
0.151552 0.0845169 0 0.173758
0 0.173822 0 0.173864
0.075776 0.159528 -3.46945e-18 0.174732
0.151552 0.0912666 0 0.173497
0.151552 0.0982613 0 0.173224
0 0.183814 0 0.173332
0.151552 0.10551 0 0.17294
0.075776 0.169001 0 0.174139
0.151552 0.113022 0 0.172644
0.151552 0.120806 0 0.172335
0 0.194169 0 0.172817
0.075776 0.178818 3.46945e-18 0.173589
0.151552 0.128874 0 0.172015
0.075776 0.188991 0 0.173075
0.151552 0.137234 0 0.171691
0 0.2049 0 0.172283
0.151552 0.145897 0 0.171365
0.075776 0.199534 0 0.172559
0 0.21602 0 0.171708
0.151552 0.154876 0 0.171039
0.219992 0.00184055 0 0.16417
0.219992 0.00558849 -3.46945e-18 0.164263
0.219992 0.00947248 3.46945e-18 0.164485
0.219992 0.0134975 -3.46945e-18 0.164735
0.219992 0.0176687 3.46945e-18 0.16497
0.219992 0.0219913 3.46945e-18 0.165196
0.219993 0.0264709 0 0.165416
0.219992 0.031113 -3.46945e-18 0.165625
0.219992 0.0359237 3.46945e-18 0.165825
0.151552 0.16418 0 0.170716
0.075776 0.21046 3.46945e-18 0.172006
0.219992 0.0409092 0 0.166017
0.219992 0.0460755 0 0.166204
0.219993 0.0514296 0 0.16638
0.219992 0.0569779 0 0.166547
0 0.227544 0 0.171098
0.219992 0.0627277 0 0.166703
0.219992 0.0686863 -3.46945e-18 0.166846
0.151552 0.173822 0 0.170402
0.219992 0.0748612 3.46945e-18 0.166977
0.075776 0.221782 0 0.17141
0.219992 0.0812603 0 0.167093
0.219992 0.0878917 0 0.167193
0.151552 0.183814 0 0.170096
7.47806e-17 0.239487 0 0.170466
0.219993 0.0947639 0 0.167277
0.219992 0.101886 0 0.167344
0.075776 0.233515 3.46945e-18 0.170786
0.219993 0.109266 0 0.167398
0.151552 0.194169 0 0.169787
0.219992 0.116914 3.46945e-18 0.167434
0 0.251863 0 0.169819
0.219992 0.12484 -3.46945e-18 0.167448
0.151552 0.2049 0 0.169457
0.075776 0.245675 0 0.170146
0.219992 0.133054 0 0.167441
0.219992 0.141566 0 0.167415
0.151552 0.21602 0 0.169094
0 0.264688 0 0.16916
0.219993 0.150387 0 0.167372
0.075776 0.258275 3.46945e-18 0.169493
0.219992 0.159528 0 0.167316
0.151552 0.227544 0 0.1687
0.219993 0.169001 -3.46945e-18 0.167248
0 0.27798 0 0.168487
0.075776 0.271334 0 0.168827
0.151552 0.239487 3.70071e-18 0.168281
0.219992 0.178818 0 0.167162
0.288433 0 0 0.167981
0.288433 0.00368111 0 0.168014
0.288433 0.00749587 0 0.168118
0.288433 0.0114491 0 0.168271
0.288433 0.0155459 0 0.168431
0.288433 0.0197915 0 0.168588
0.288433 0.0241911 0 0.168744
0.288433 0.0287506 0 0.168896
0.219993 0.188991 0 0.167055
0.288433 0.0334755 0 0.169044
0.288433 0.038372 0 0.169187
0.288433 0.0434463 0 0.169327
7.47806e-17 0.291753 0 0.167798
0.288433 0.0487048 0 0.169462
0.288433 0.0541543 0 0.16959
0.151552 0.251863 0 0.16784
0.288433 0.0598016 0 0.169712
0.075776 0.284867 0 0.168147
0.288433 0.0656539 0 0.169828
0.219992 0.199534 0 0.166925
0.288433 0.0717187 0 0.169939
0.288433 0.0780037 0 0.170044
0.288433 0.0845169 0 0.170142
0.288433 0.0912666 0 0.170228
0.219992 0.21046 0 0.166771
0.288433 0.0982613 0 0.170293
0.151552 0.264688 3.70071e-18 0.16738
0 0.306027 0 0.167089
0.288433 0.10551 0 0.170333
0.075776 0.29889 -3.46945e-18 0.167449
0.288433 0.113022 0 0.17035
0.219992 0.221782 0 0.16659
0.288433 0.120806 0 0.170353
0.288433 0.128874 0 0.170343
0.151552 0.27798 0 0.166904
0.288433 0.137234 0 0.170322
0 0.320819 0 0.166354
0.219993 0.233515 0 0.166382
0.075776 0.313423 3.46945e-18 0.166728
0.288433 0.145897 0 0.170284
0.288433 0.154876 0 0.170229
0.151552 0.291753 0 0.166409
0.219993 0.245675 0 0.166144
0.288433 0.16418 0 0.170159
0 0.336148 0 0.165604
0.288433 0.173822 0 0.170071
0.075776 0.328484 0 0.16598
0.219992 0.258275 0 0.165879
0.151552 0.306027 0 0.165888
0.288433 0.183814 0 0.169965
0.288433 0.194169 0 0.169837
0.219993 0.271334 0 0.165594
0.350249 0.00184056 0 0.171512
0.350249 0.00558849 3.46945e-18 0.171551
0.350249 0.00947248 0 0.171623
0.350249 0.0134975 3.46945e-18 0.171704
0.350249 0.0176687 -3.46945e-18 0.17179
0.350249 0.0219913 0 0.171882
0.350249 0.0264709 -3.46945e-18 0.171977
0.350249 0.031113 0 0.172071
0 0.352034 0 0.164859
0.350249 0.0359238 3.46945e-18 0.172166
0.075776 0.344091 0 0.165227
0.350249 0.0409091 3.46945e-18 0.172261
0.350249 0.0460755 -3.46945e-18 0.172354
0.288433 0.2049 0 0.169686
0.350249 0.0514296 0 0.172443
0.151552 0.320819 0 0.165335
0.350249 0.0569779 0 0.172529
0.350249 0.0627277 0 0.172615
0.350249 0.0686863 0 0.172702
0.350249 0.0748612 0 0.172788
0.350249 0.0812603 0 0.172876
0.219992 0.284867 0 0.165291
0.288433 0.21602 0 0.16951
0.350249 0.0878918 0 0.172965
0.350249 0.0947639 0 0.173038
0.350249 0.101886 0 0.173076
0.350249 0.109266 3.46945e-18 0.173078
0.288433 0.227544 0 0.169309
0.075776 0.360265 0 0.164491
0 0.368496 0 0.16412
0.151552 0.336148 0 0.164753
0.350249 0.116914 -3.46945e-18 0.173061
0.219992 0.29889 -3.46945e-18 0.164962
0.370854 0.0241911 -3.08149e-33 0.173908
0.350249 0.12484 3.46945e-18 0.17304
0.350249 0.133054 0 0.173019
0.288433 0.239487 -9.25154e-19 0.16908
0.350249 0.141565 3.46945e-18 0.172987
0.350249 0.150387 0 0.172937
0.288433 0.251863 0 0.168823
0.219992 0.313423 0 0.164597
0.151552 0.352034 0 0.164152
0.075776 0.377026 -3.46945e-18 0.163748
0.350249 0.159528 0 0.172868
0 0.385557 0 0.163353
0.350249 0.169001 3.46945e-18 0.172781
0.288433 0.264688 0 0.16854
0.350249 0.178818 3.46945e-18 0.172675
0.219992 0.328484 0 0.164191
0.350249 0.188991 0 0.172548
0.151552 0.368496 0 0.163533
0.288433 0.27798 3.70071e-18 0.168233
0.075776 0.394396 -3.46945e-18 0.162956
0.350249 0.199535 3.46945e-18 0.172401
7.47806e-17 0.403236 0 0.162534
0.219992 0.344091 -3.46945e-18 0.163744
0.350249 0.21046 3.46945e-18 0.17223
0.288433 0.291753 0 0.167899
0.412065 9.08189e-19 3.08149e-33 0.176208
0.412065 0.00368111 3.08149e-33 0.176222
0.412065 0.00749587 3.08149e-33 0.176261
0.412065 0.0114491 0 0.176314
0.412065 0.0155459 0 0.176371
0.412065 0.0197915 0 0.17643
0.412065 0.0241911 -3.08149e-33 0.17649
0.412065 0.0264709 0 0.176521
0.412065 0.0287506 0 0.176552
0.412065 0.0334755 3.08149e-33 0.176615
0.412065 0.038372 3.08149e-33 0.176679
0.151552 0.385557 0 0.162878
0.412065 0.0434463 0 0.176746
0.350249 0.221782 3.46945e-18 0.172036
0.412065 0.0487048 0 0.176812
0.412065 0.0541543 0 0.176879
0.412065 0.0569779 0 0.176913
0.412065 0.0598016 0 0.176946
0.412065 0.0656539 3.08149e-33 0.177011
0.412065 0.0717187 3.08149e-33 0.177074
0.075776 0.412396 -3.46945e-18 0.162111
0.412065 0.0780037 -2.31298e-18 0.177134
0.288433 0.306027 0 0.167534
0.412065 0.0845169 2.31112e-33 0.177191
0.350249 0.233515 0 0.171816
0 0.421557 0 0.161668
0.412065 0.0912666 1.54074e-33 0.177232
0.219992 0.360265 0 0.163255
0.412065 0.0982613 0 0.177242
0.412065 0.10551 0 0.177223
0.412065 0.113022 -2.31298e-18 0.177185
0.350249 0.245675 3.46945e-18 0.171568
0.412065 0.120806 0 0.177136
0.151552 0.403236 0 0.162176
0.288433 0.320819 0 0.167133
0.412065 0.128874 -2.31298e-18 0.17708
0.412065 0.137234 0 0.177014
0.350249 0.258275 3.46945e-18 0.171292
0.219993 0.377026 0 0.162726
0.412065 0.145897 -2.31298e-18 0.176937
0.075776 0.43105 -3.46945e-18 0.161225
0.412065 0.154876 -2.31298e-18 0.176845
0 0.440544 0 0.160765
0.288433 0.336148 0 0.166692
0.350249 0.271334 0 0.170986
0.412065 0.16418 -2.31298e-18 0.176737
0.412065 0.173822 -2.31298e-18 0.176612
0.151552 0.421557 0 0.161426
0.412065 0.183814 -2.31298e-18 0.17647
0.350249 0.284866 3.46945e-18 0.170651
0.219992 0.394397 -3.46945e-18 0.162154
0.288433 0.352034 3.70071e-18 0.166212
0.412065 0.194169 0 0.176309
0.075776 0.450382 -3.46945e-18 0.160305
0.412065 0.2049 -2.31298e-18 0.176127
0 0.46022 0 0.15983
0.350249 0.29889 -3.46945e-18 0.170286
0.412065 0.21602 0 0.175923
0.151552 0.440544 0 0.160631
0.219993 0.412397 3.46945e-18 0.161536
0.467897 0.00184056 3.46945e-18 0.180577
0.467897 0.00558849 3.46945e-18 0.180595
0.288433 0.368496 0 0.165689
0.467897 0.00947248 0 0.180624
0.467897 0.0134975 3.46945e-18 0.180657
0.467897 0.0176687 0 0.180689
0.467897 0.0219913 0 0.180718
0.467897 0.0264709 0 0.180748
0.467897 0.031113 0 0.18078
0.467897 0.0359238 3.46945e-18 0.180814
0.467897 0.038372 0 0.181266
0.467897 0.0409092 0 0.180853
0.350249 0.313423 3.46945e-18 0.169888
0.467897 0.0460756 3.46945e-18 0.180896
0.467897 0.0514296 0 0.180942
0.412065 0.227544 -2.31298e-18 0.175695
0.467897 0.0569779 0 0.180991
0.467897 0.0627277 3.46945e-18 0.181039
0.467897 0.0686863 3.46945e-18 0.181082
0.467897 0.0748612 0 0.18112
0.467897 0.0812603 0 0.181154
0.467897 0.0878917 0 0.181175
0.075776 0.470415 0 0.159354
0.412065 0.239487 -2.31298e-18 0.175442
0.467897 0.0947639 -3.46945e-18 0.18116
0.467897 0.101886 0 0.181112
0.350249 0.328483 3.46945e-18 0.169455
0.467897 0.109266 0 0.18105
0 0.48061 0 0.158861
0.288433 0.385557 0 0.165123
0.467897 0.116914 -3.46945e-18 0.180979
0.412065 0.251863 -2.31298e-18 0.175162
0.219992 0.43105 -3.46945e-18 0.160868
0.467897 0.12484 0 0.180896
0.151552 0.46022 0 0.159795
0.467897 0.133054 0 0.1808
0.467897 0.141566 0 0.180694
0.412065 0.264688 -2.31298e-18 0.174852
0.350249 0.344091 0 0.168983
0.467897 0.150387 3.46945e-18 0.180577
0.467897 0.154876 0 0.181036
0.467897 0.159528 0 0.180449
0.288433 0.403236 0 0.164512
0.075776 0.491175 0 0.158368
0.412065 0.27798 -2.31298e-18 0.174513
0.467897 0.169001 0 0.180306
0.467897 0.178818 3.46945e-18 0.180148
0.219992 0.450382 -3.46945e-18 0.160148
7.47806e-17 0.501741 0 0.157854
0.350249 0.360265 0 0.16847
0.151552 0.48061 3.70071e-18 0.158915
0.467897 0.188992 0 0.179974
0.412065 0.291753 0 0.174142
0.467897 0.199534 -3.46945e-18 0.179781
0.288433 0.421557 0 0.163851
0.467897 0.21046 0 0.179568
0.412065 0.306027 0 0.173738
0.350249 0.377026 -3.46945e-18 0.167913
0.467897 0.221782 -3.46945e-18 0.179333
0.075776 0.51269 3.46945e-18 0.157338
0.219992 0.470415 3.46945e-18 0.159376
0.412065 0.320819 -2.31298e-18 0.173298
0.467897 0.233515 3.46945e-18 0.179074
7.47806e-17 0.523639 0 0.156801
0.523729 0 0 0.185665
0.523729 0.00368111 0 0.185672
0.523729 0.00749587 0 0.185693
0.523729 0.0114491 0 0.185721
0.523729 0.0155459 0 0.18575
0.523729 0.0197915 3.08149e-33 0.185773
0.151552 0.501741 0 0.157989
0.523729 0.0241911 0 0.185791
0.523729 0.0287506 0 0.18581
0.523729 0.0334755 0 0.18583
0.523729 0.038372 -3.08149e-33 0.185852
0.523729 0.0434463 0 0.185877
0.523729 0.0487048 0 0.185905
0.523729 0.0541543 0 0.185937
0.288433 0.440544 0 0.16314
0.523729 0.0598016 0 0.18597
0.350249 0.394397 0 0.16731
0.523729 0.0656539 0 0.186002
0.467897 0.245675 0 0.17879
0.523729 0.0717187 0 0.186032
0.523729 0.0780037 0 0.186056
0.523729 0.0845169 0 0.186064
0.523729 0.0912666 0 0.186041
0.412065 0.336148 0 0.172819
0.523729 0.0982613 0 0.185985
0.523729 0.10551 -2.31298e-18 0.18591
0.467897 0.258275 0 0.178479
0.523729 0.113022 0 0.185825
0.523729 0.120806 -3.08149e-33 0.18573
0.219992 0.491176 3.46945e-18 0.158553
0.523729 0.12484 0 0.185677
0.523729 0.128874 -2.31298e-18 0.185623
0.075776 0.534986 3.46945e-18 0.156263
0.467897 0.271334 3.46945e-18 0.178138
0.350249 0.412396 3.46945e-18 0.16666
0.523729 0.137234 0 0.185503
0.412065 0.352034 -2.31298e-18 0.1723
0.288433 0.46022 0 0.162374
0.523729 0.145897 0 0.185372
0.151552 0.523639 0 0.157012
0.495813 0.227544 -1.54074e-33 0.18201
0.523729 0.154876 -3.08149e-33 0.185228
0 0.546332 0 0.155703
0.523729 0.159528 0 0.185148
0.467897 0.284867 0 0.177765
0.523729 0.16418 -2.31298e-18 0.185069
0.523729 0.173822 0 0.184894
0.412065 0.368496 0 0.171737
0.523729 0.183814 0 0.184702
0.467897 0.29889 3.46945e-18 0.177358
0.350249 0.431051 0 0.165958
0.219993 0.51269 3.46945e-18 0.157676
0.523729 0.194169 0 0.184492
0.288433 0.48061 0 0.161554
0.523729 0.2049 0 0.184261
0.467897 0.313423 0 0.176915
0.075776 0.55809 0 0.155141
0.412065 0.385557 0 0.171127
0.523729 0.21602 -3.08149e-33 0.184008
0.151552 0.546332 0 0.155981
0 0.569849 0 0.154557
0.350249 0.450382 3.46945e-18 0.165203
0.467897 0.328483 -3.46945e-18 0.176433
0.574156 0.00184055 0 0.190419
0.574156 0.00558849 0 0.190432
0.574156 0.00947248 3.46945e-18 0.190454
0.574156 0.0134975 -3.46945e-18 0.190482
0.574157 0.0176687 3.46945e-18 0.190504
0.574156 0.0219913 0 0.190515
0.574156 0.0264708 0 0.190522
0.574157 0.031113 3.46945e-18 0.190529
0.574156 0.0359237 3.46945e-18 0.190536
0.574157 0.0409092 3.46945e-18 0.190546
0.523729 0.239487 0 0.183431
0.574156 0.0460755 -3.46945e-18 0.190557
0.574156 0.0514296 0 0.190572
0.412065 0.403236 0 0.17047
0.574157 0.0569779 0 0.19059
0.574156 0.0627277 0 0.19061
0.574156 0.0686863 0 0.190631
0.219992 0.534985 0 0.15674
0.288433 0.501741 3.70071e-18 0.160678
0.574156 0.0748612 0 0.190649
0.574156 0.0812603 3.46945e-18 0.190656
0.467897 0.344091 0 0.17591
0.574156 0.0878917 0 0.190629
0.523729 0.251863 0 0.183102
0.574156 0.0947639 -3.46945e-18 0.190561
0.574156 0.101886 3.46945e-18 0.190472
0.574156 0.109266 -3.46945e-18 0.190375
0.574156 0.116914 3.46945e-18 0.190268
0.412065 0.416977 1.54074e-33 0.169938
0.350249 0.470415 0 0.164392
0.523729 0.264688 0 0.182744
0.075776 0.582034 0 0.15397
0.574156 0.12484 3.46945e-18 0.19015
0.574156 0.133054 0 0.19002
0.412065 0.421557 3.08149e-33 0.169761
0.151552 0.569849 0 0.154891
0.467897 0.360265 -3.46945e-18 0.175344
0.574156 0.141565 -3.46945e-18 0.189877
0.523729 0.27798 0 0.182355
0.574156 0.150386 0 0.18972
0 0.594219 0 0.153359
0.574157 0.159528 0 0.189548
0.574156 0.16418 0 0.189943
0.288433 0.523639 -9.25154e-19 0.159741
0.574156 0.169001 -3.46945e-18 0.189359
0.523729 0.291753 0 0.181932
0.219993 0.558091 3.46945e-18 0.155736
0.467897 0.377027 -3.46945e-18 0.174732
0.574156 0.178818 0 0.189153
0.412065 0.440544 -2.31298e-18 0.168999
0.350249 0.491175 3.46945e-18 0.163522
0.574156 0.188992 0 0.188928
0.523729 0.306027 2.31298e-18 0.181474
0.574156 0.199534 0 0.188682
0.574157 0.21046 -3.46945e-18 0.188415
0.075776 0.606847 0 0.152745
0.467897 0.394397 0 0.174071
0.151552 0.594219 0 0.15374
0.523729 0.320819 0 0.180977
0.574156 0.221782 -3.46945e-18 0.188124
0.412065 0.46022 -2.31298e-18 0.16818
0.288433 0.546332 0 0.158739
0 0.619475 0 0.152105
0.574156 0.233515 3.46945e-18 0.187808
0.350249 0.51269 0 0.16259
0.219992 0.582034 3.46945e-18 0.154665
0.523729 0.336148 0 0.18044
0.467897 0.412396 -3.46945e-18 0.173359
0.574156 0.245675 3.46945e-18 0.187465
0.624584 0 0 0.196213
0.624584 0.00368111 0 0.196219
0.624584 0.00749587 0 0.196235
0.624584 0.0114491 0 0.19626
0.624584 0.0155459 0 0.196284
0.624584 0.0197915 0 0.196296
0.624584 0.0241911 3.08149e-33 0.196299
0.624584 0.0287506 0 0.196297
0.624584 0.0334755 0 0.196294
0.624584 0.038372 0 0.196291
0.624584 0.0434463 0 0.19629
0.624584 0.0487048 0 0.196291
0.624584 0.0541543 0 0.196293
0.624584 0.0598016 0 0.196297
0.624584 0.0656539 0 0.196301
0.624584 0.0717187 0 0.196304
0.624584 0.0780037 0 0.196297
0.574157 0.258275 -3.46945e-18 0.187093
0.624584 0.0845169 0 0.196262
0.523729 0.352034 0 0.17986
0.624584 0.0912666 0 0.196189
0.624584 0.0982613 0 0.196088
0.412065 0.48061 -2.31298e-18 0.167302
0.624584 0.10551 0 0.195973
0.624584 0.113022 -2.31298e-18 0.195848
0.574156 0.271334 -3.46945e-18 0.18669
0.624584 0.120806 0 0.195712
0.467897 0.43105 3.46945e-18 0.172593
0.075776 0.632561 0 0.151462
0.624584 0.128874 0 0.195562
0.151552 0.619475 0 0.152525
0.288433 0.569849 0 0.157669
0.350249 0.534985 0 0.161593
0.624584 0.137234 -2.31298e-18 0.195399
0.523729 0.368496 0 0.179234
0.574156 0.284867 0 0.186255
0.624584 0.145897 0 0.195221
0.467897 0.440544 0 0.172608
0.624584 0.154876 0 0.195028
0.219992 0.606847 0 0.153522
0 0.645647 0 0.150791
0.624584 0.16418 -3.08149e-33 0.194818
0.574156 0.29889 3.46945e-18 0.185784
0.624584 0.173822 0 0.194589
0.412065 0.501741 -2.31298e-18 0.166362
0.467897 0.450382 -3.46945e-18 0.171771
0.523729 0.385557 -3.08149e-33 0.178559
0.624584 0.183814 0 0.194342
0.624584 0.194169 0 0.194073
0.574157 0.313423 -3.46945e-18 0.185276
0.624584 0.2049 0 0.193783
0.350249 0.558091 0 0.160528
0.288433 0.594219 0 0.156527
0.624584 0.21602 0 0.193468
0.523729 0.403236 -3.70071e-18 0.177833
0.574156 0.328483 -3.46945e-18 0.184727
0.151552 0.645647 0 0.151242
0.467897 0.470415 0 0.17089
0.075776 0.659208 0 0.150118
0.624584 0.227544 0 0.193129
0.412065 0.523639 -2.31298e-18 0.165356
0.523729 0.41545 -1.54074e-33 0.177313
0.624584 0.239487 3.70071e-18 0.192762
0.574156 0.344091 3.46945e-18 0.184137
0.219992 0.632561 0 0.152306
0.67013 0.00184055 -3.46945e-18 0.201652
0.67013 0.00558849 -3.46945e-18 0.201663
0.67013 0.00947248 3.46945e-18 0.201685
0.67013 0.0134975 -3.46945e-18 0.201712
0.67013 0.0176687 3.46945e-18 0.20173
0.67013 0.0219913 0 0.201731
0.67013 0.0264708 0 0.201722
0.67013 0.031113 0 0.20171
0.67013 0.0359237 0 0.201697
0.67013 0.0409092 3.46945e-18 0.201684
0.67013 0.0460755 3.46945e-18 0.201673
0.67013 0.0514296 0 0.201663
0.523729 0.421557 3.08149e-33 0.177053
0.67013 0.0569779 0 0.201651
0 0.67277 0 0.149413
0.67013 0.0627277 -3.46945e-18 0.20164
0.624584 0.251863 0 0.192366
0.67013 0.0686863 0 0.201629
0.67013 0.0748612 0 0.201615
0.67013 0.0812603 0 0.201579
0.67013 0.0878918 0 0.201499
0.67013 0.0947639 0 0.201384
0.574156 0.360265 3.46945e-18 0.1835
0.67013 0.101886 0 0.201254
0.523729 0.431051 0 0.176635
0.624584 0.264688 0 0.19194
0.467897 0.491175 3.46945e-18 0.169946
0.67013 0.109266 3.46945e-18 0.201114
0.350249 0.582034 0 0.159392
0.67013 0.116914 0 0.200961
0.67013 0.12484 0 0.200796
0.67013 0.133054 0 0.200615
0.288433 0.619475 0 0.155312
0.624584 0.27798 2.31298e-18 0.191481
0.412065 0.546332 -2.31298e-18 0.164282
0.523729 0.440544 -3.08149e-33 0.176216
0.67013 0.141566 0 0.20042
0.685312 0.0241911 -7.70372e-34 0.20406
0.685312 0.0434463 -7.70372e-34 0.203991
0.67013 0.150386 0 0.200208
0.574157 0.377027 -3.46945e-18 0.182816
0.67013 0.159528 -3.46945e-18 0.199979
0.624584 0.291753 0 0.190987
0.151552 0.67277 0 0.149889
0.075776 0.686823 0 0.148706
0.67013 0.169001 -3.46945e-18 0.199732
0.67013 0.178818 0 0.199464
0.467897 0.51269 0 0.168937
0.685312 0.113022 -7.70372e-34 0.20326
0.219992 0.659208 0 0.151014
0.624584 0.306027 0 0.190455
0.67013 0.188992 0 0.199176
0.574157 0.394397 0 0.182081
0.523729 0.46022 0 0.17532
0.685312 0.137234 -7.70372e-34 0.202709
0.67013 0.199535 0 0.198866
0.350249 0.606847 0 0.158181
0 0.700877 0 0.147967
0.624584 0.320819 0 0.189884
0.67013 0.21046 0 0.198531
0.412065 0.569849 -2.31298e-18 0.163136
0.67013 0.221782 0 0.198172
0.574156 0.412396 0 0.181291
0.288433 0.645647 0 0.154018
0.624584 0.336148 0 0.18927
0.67013 0.233516 -3.46945e-18 0.197785
0.467897 0.534986 0 0.167859
0.523729 0.48061 0 0.17436
0.624584 0.344091 0 0.188941
0.67013 0.245675 0 0.197369
0.715676 4.54095e-19 0 0.207879
0.715676 0.00368111 -9.25187e-19 0.207884
0.715676 0.00749587 -9.25187e-19 0.2079
0.715676 0.0114491 -9.25187e-19 0.207924
0.715676 0.0155459 -9.25187e-19 0.207946
0.715676 0.0197915 -9.25187e-19 0.207951
0.715676 0.0241911 -9.25187e-19 0.207941
0.715676 0.0287506 0 0.207921
0.715676 0.0334755 0 0.207896
0.715676 0.038372 -9.25187e-19 0.207869
0.624584 0.352034 3.08149e-33 0.188611
0.715676 0.0434463 -9.25187e-19 0.207842
0.151552 0.700877 0 0.148461
0.715676 0.0487048 0 0.207815
0.715676 0.0541543 0 0.207787
0.574156 0.43105 3.46945e-18 0.180445
0.715676 0.0598016 -9.25187e-19 0.207758
0.67013 0.258275 3.46945e-18 0.196923
0.715676 0.0656539 -9.25187e-19 0.207729
0.715676 0.0717187 -9.25187e-19 0.207697
0.075776 0.715441 0 0.147225
0.715676 0.0780037 0 0.207649
0.715676 0.0845169 0 0.207565
0.219992 0.686824 0 0.149644
0.715676 0.0912666 0 0.207442
0.715676 0.0982613 0 0.207296
0.67013 0.271334 3.46945e-18 0.196444
0.350249 0.632561 -3.46945e-18 0.156893
0.412065 0.594219 -2.31298e-18 0.161914
0.715676 0.10551 0 0.207137
0.715676 0.113022 0 0.206966
0.624584 0.368496 0 0.187905
0.523729 0.501741 3.70071e-18 0.173333
0.715676 0.120806 0 0.20678
0.715676 0.128874 0 0.20658
0.67013 0.284867 0 0.19593
0.467897 0.558091 3.46945e-18 0.166709
0.715676 0.137234 0 0.206363
0.574156 0.450382 3.46945e-18 0.179538
0 0.730005 0 0.146448
0.715676 0.145897 0 0.20613
0.288433 0.67277 0 0.152645
0.715676 0.154876 0 0.205879
0.67013 0.29889 -3.46945e-18 0.195379
0.624584 0.385557 0 0.187147
0.715676 0.16418 0 0.205609
0.715676 0.173822 0 0.205318
0.715676 0.183814 0 0.205006
0.67013 0.313423 -3.46945e-18 0.194788
0.523729 0.523639 3.70071e-18 0.172236
0.715676 0.194169 0 0.204672
0.574156 0.470415 0 0.178567
0.624584 0.403236 -3.70071e-18 0.186335
0.743101 0.0241911 -7.70372e-34 0.212079
0.412065 0.619475 -2.31298e-18 0.160612
0.715676 0.2049 0 0.204313
0.151552 0.730005 0 0.146955
0.67013 0.328483 0 0.194155
0.350249 0.659208 0 0.155522
0.467897 0.582034 0 0.165482
0.715676 0.21602 0 0.203928
0.219992 0.715441 0 0.148193
0.075776 0.745098 0 0.145668
0.715676 0.227544 0 0.203516
0.67013 0.344091 0 0.193478
0.624584 0.421557 0 0.185467
0.743101 0.128874 -7.70372e-34 0.210463
0.715676 0.239487 0 0.203075
0.574156 0.491175 3.46945e-18 0.177529
0.756814 0.00184056 -3.46945e-18 0.213753
0.523729 0.546332 0 0.171066
0.756813 0.00558849 -3.46945e-18 0.213765
0.756813 0.00947248 -3.46945e-18 0.213786
0.756813 0.0134975 -3.46945e-18 0.213812
0.756814 0.0155459 0 0.214164
0.756814 0.0176687 0 0.213826
0.756814 0.0219913 3.46945e-18 0.213817
0.756814 0.0264709 3.46945e-18 0.213792
0.756813 0.0311131 3.46945e-18 0.213759
0.756813 0.0359238 -3.46945e-18 0.21372
0.288433 0.700877 0 0.151188
0.756813 0.0409092 -3.46945e-18 0.213679
0.756813 0.0460755 0 0.213636
0.756813 0.0514296 0 0.213593
0.715676 0.251863 0 0.202603
0.756814 0.0569779 0 0.213549
0.756814 0.0627277 0 0.213504
0.756814 0.0686863 0 0.213457
0 0.76019 0 0.144853
0.756813 0.0748612 0 0.213402
0.67013 0.360265 -3.46945e-18 0.192753
0.756814 0.0812603 0 0.213318
0.756814 0.0878917 0 0.213186
0.756813 0.0947639 -3.46945e-18 0.213024
0.715676 0.264688 0 0.202098
0.756814 0.101886 -3.46945e-18 0.212849
0.624584 0.440544 0 0.184537
0.756814 0.109266 0 0.212661
0.756814 0.116914 0 0.212459
0.412065 0.645647 0 0.159228
0.467897 0.606847 -3.46945e-18 0.164175
0.756814 0.120806 0 0.212636
0.756813 0.12484 3.46945e-18 0.212241
0.715676 0.27798 -9.25187e-19 0.201558
0.756813 0.133054 -3.46945e-18 0.212006
0.67013 0.377027 0 0.191978
0.756814 0.137234 0 0.212157
0.574157 0.51269 3.46945e-18 0.176421
0.756813 0.141566 3.46945e-18 0.211755
0.685312 0.352034 -7.70372e-34 0.195039
0.743101 0.2049 -7.70372e-34 0.20801
0.350249 0.686824 0 0.154067
0.756813 0.150386 -3.46945e-18 0.211484
0.756814 0.154876 0 0.211606
0.715676 0.291753 3.70074e-18 0.200981
0.756814 0.159528 3.46945e-18 0.211194
0.523729 0.569849 0 0.169818
0.72743 0.264688 0 0.203624
0.756814 0.16418 0 0.211302
0.151552 0.76019 3.70071e-18 0.145367
0.756813 0.169001 -3.46945e-18 0.210884
0.624584 0.46022 0 0.183544
0.219993 0.745098 0 0.146656
0.67013 0.394396 -3.46945e-18 0.191149
0.756813 0.178818 -3.46945e-18 0.210551
0.715676 0.306027 -9.25187e-19 0.200365
0.075776 0.775831 0 0.144033
0.756814 0.188992 0 0.210196
0.756814 0.199535 0 0.209816
0.715676 0.320819 0 0.199706
0.574156 0.534986 3.46945e-18 0.175238
0.288433 0.730005 0 0.149643
0.756814 0.21046 3.46945e-18 0.20941
0.467897 0.632561 0 0.162784
0.67013 0.412396 -3.46945e-18 0.190263
0.624584 0.48061 -3.08149e-33 0.182483
0.756814 0.221782 0 0.208976
0.412065 0.67277 -2.31298e-18 0.157756
0.715676 0.336148 0 0.199003
0 0.791472 0 0.143176
0.756813 0.233515 3.46945e-18 0.208513
0.523729 0.594219 0 0.168489
0.624584 0.487654 1.54074e-33 0.182105
0.756814 0.245675 0 0.208018
0.350249 0.715441 3.46945e-18 0.152522
0.67013 0.43105 3.46945e-18 0.189316
0.715676 0.352034 -9.25187e-19 0.198253
0.797951 9.08189e-19 0 0.220318
0.797951 0.00368111 2.31298e-18 0.220323
0.797951 0.00749587 2.31298e-18 0.22034
0.797951 0.0114491 2.31298e-18 0.220364
0.797951 0.0141803 7.70372e-34 0.220376
0.797951 0.0155459 0 0.220382
0.797951 0.0169611 7.70372e-34 0.220382
0.797951 0.0197915 -3.08149e-33 0.220381
0.797951 0.0219913 0 0.220369
0.797951 0.0241911 3.08149e-33 0.220357
0.797951 0.0264709 0 0.220336
0.797951 0.0287506 -3.08149e-33 0.220316
0.797951 0.0334755 2.31298e-18 0.220264
0.797951 0.038372 2.31298e-18 0.220206
0.797951 0.0434463 2.31298e-18 0.220144
0.797951 0.0487048 2.31298e-18 0.22008
0.756814 0.258275 -3.46945e-18 0.207491
0.797951 0.0541543 2.31298e-18 0.220014
0.797951 0.0598016 2.31298e-18 0.219946
0.797951 0.0656539 2.31298e-18 0.219875
0.574156 0.55809 3.46945e-18 0.173976
0.624584 0.501741 3.70071e-18 0.18135
0.797951 0.0717187 2.31298e-18 0.219797
0.797951 0.0780037 2.31298e-18 0.219695
0.797951 0.0845169 0 0.219554
0.797951 0.0912666 0 0.219376
0.797951 0.0982613 -3.08149e-33 0.219177
0.756814 0.271334 3.46945e-18 0.206929
0.797951 0.10551 0 0.218964
0.715676 0.368496 -9.25187e-19 0.197452
0.151552 0.791472 3.70071e-18 0.143694
0.797951 0.113022 0 0.218736
0.219992 0.775831 3.46945e-18 0.145032
0.797951 0.118211 7.70372e-34 0.218573
0.770526 0.239487 -3.08149e-33 0.21031
0.797951 0.120806 0 0.218492
0.67013 0.450382 -3.46945e-18 0.188306
0.797951 0.128874 3.08149e-33 0.21823
0.467897 0.659208 0 0.161304
0.756814 0.284867 -3.46945e-18 0.20633
0.743101 0.320819 -7.70372e-34 0.203149
0.797951 0.137234 0 0.217951
0.797951 0.141566 0 0.217802
0.797951 0.145897 0 0.217652
0.523729 0.619475 0 0.167073
0.075776 0.807681 -3.46945e-18 0.142315
0.797951 0.150387 0 0.217493
0.797951 0.154876 9.25187e-19 0.217334
0.715676 0.385557 0 0.196598
0.412065 0.700877 -2.31298e-18 0.156194
0.288433 0.76019 0 0.148008
0.756814 0.29889 0 0.205692
0.797951 0.16418 0 0.216995
0.624584 0.523639 3.70071e-18 0.180142
0.797951 0.167394 7.70372e-34 0.216874
0.797951 0.173822 0 0.216634
0.574156 0.582034 0 0.172632
0.67013 0.470415 0 0.187228
0.797951 0.183814 -3.08149e-33 0.216249
0.756814 0.313423 0 0.205012
0.797951 0.194169 0 0.21584
0.715676 0.403236 3.70074e-18 0.195688
0.151552 0.807681 0 0.142813
0.797951 0.197746 -7.70372e-34 0.215695
0.350249 0.745097 0 0.150885
0.797951 0.2049 3.08149e-33 0.215404
0 0.823889 0 0.141415
0.756813 0.328483 3.46945e-18 0.204288
0.797951 0.21046 0 0.215173
0.797951 0.21602 -3.08149e-33 0.214942
0.797951 0.223703 7.70372e-34 0.214614
0.797951 0.227544 0 0.21445
0.624584 0.546332 0 0.178855
0.715676 0.421557 -9.25187e-19 0.194716
0.67013 0.491175 3.46945e-18 0.186078
0.797951 0.231525 7.70372e-34 0.214276
0.467897 0.686823 0 0.159732
0.523729 0.645647 0 0.165567
0.756813 0.344091 0 0.203516
0.822721 0.120806 7.70372e-34 0.222503
0.797951 0.239487 -3.08149e-33 0.213927
0.822721 0.137234 7.70372e-34 0.221918
0.835106 0.00184055 0 0.226543
0.835106 0.00558849 0 0.226555
0.835106 0.00947248 -3.46945e-18 0.226577
0.835106 0.0134975 -3.46945e-18 0.226603
0.835106 0.0176687 -3.46945e-18 0.226611
0.835106 0.0219913 0 0.226592
0.574156 0.606847 0 0.1712
0.835106 0.0241911 0 0.226751
0.835106 0.0264709 0 0.226549
0.822721 0.145897 -7.70372e-34 0.221596
0.835106 0.0311131 -3.46945e-18 0.226489
0.835106 0.0359238 -3.46945e-18 0.226416
0.835106 0.0409091 -3.46945e-18 0.226338
0.835106 0.0460755 0 0.226256
0.835106 0.0514296 -3.46945e-18 0.22617
0.797951 0.251863 2.31298e-18 0.213372
0.835106 0.0541543 0 0.226305
0.835106 0.0569779 3.46945e-18 0.226081
0.219992 0.807681 0 0.143316
0.822721 0.154876 7.70372e-34 0.221254
0.835106 0.0627277 0 0.225989
0.151552 0.823889 0 0.141932
0.797951 0.255069 -1.54074e-33 0.213224
0.835106 0.0686863 0 0.225892
0.756814 0.360265 0 0.202695
0.412065 0.730005 0 0.154536
0.835106 0.0748612 -3.46945e-18 0.22578
0.822721 0.16418 7.70372e-34 0.220891
0.835106 0.0812603 -3.46945e-18 0.22563
0.835106 0.0878917 0 0.225436
0.715676 0.440544 0 0.193681
0.835106 0.094764 0 0.225215
0.797951 0.264688 0 0.212782
0.835106 0.101886 0 0.22498
0.835106 0.109266 0 0.224729
0.288433 0.791472 0 0.14628
0.835106 0.116914 0 0.224461
0.67013 0.51269 3.46945e-18 0.184852
0.797951 0.274657 6.16298e-33 0.212312
0.075776 0.840686 -3.46945e-18 0.14051
0.835106 0.12484 3.46945e-18 0.224175
0.797951 0.27798 -3.08149e-33 0.212155
0.624584 0.569849 0 0.177483
0.756813 0.377026 0 0.20182
0.835106 0.133054 -3.46945e-18 0.223871
0.835106 0.141565 0 0.223548
0.835107 0.150387 0 0.223204
0.797951 0.291753 2.31298e-18 0.21149
0.835106 0.159528 -3.46945e-18 0.222839
0.715676 0.46022 -9.25187e-19 0.192578
0.816529 0.239487 -1.54074e-33 0.216709
0.350249 0.775831 0 0.149152