# pMean  POINT_DATA 63831
# x  y  z  pMean
0 0.5 3.39583e-17 0.157937
0 0.5 -0.00617931 0.158135
0 0.5 0.00617931 0.157742
0.0124865 0.5 0.00617931 0.157742
0.0124865 0.5 -0.00617931 0.158135
0 0.5 -0.0688207 0.159939
0 0.5 0.0688207 0.155567
0.0124865 0.5 0.0688207 0.155567
0.0124865 0.5 -0.0688207 0.159939
0 0.5 0.075 0.155332
0 0.5 -0.075 0.160098
0 0.5 -0.0811793 0.16026
0 0.5 0.0811793 0.155099
0.0124865 0.5 0.0811793 0.155099
0.0124865 0.5 -0.0811793 0.16026
0.075776 0.5 0.0375 0.156755
0.075776 0.5 -0.0375 0.159136
0.075776 0.5 0.1125 0.153925
0.075776 0.5 -0.1125 0.161077
0 0.5 -0.143821 0.161664
0 0.5 0.143821 0.152563
0.0124865 0.5 0.143821 0.152563
0.0124865 0.5 -0.143821 0.161664
0 0.5 0.15 0.152293
0 0.5 -0.15 0.161779
0.151149 0.5 2.20565e-18 0.158067
0 0.5 -0.156179 0.161898
0 0.5 0.156179 0.152026
0.0124865 0.5 0.156179 0.152026
0.0124865 0.5 -0.156179 0.161898
0.151149 0.5 0.075 0.155442
0.151149 0.5 -0.075 0.160229
0.075776 0.5 0.1875 0.150678
0.075776 0.5 -0.1875 0.162499
0.151149 0.5 0.15 0.152374
0.151149 0.5 -0.15 0.16193
0 0.5 -0.218821 0.162881
0 0.5 0.218821 0.149154
0.0124865 0.5 0.218821 0.149154
0.0124865 0.5 -0.218821 0.162881
0.219992 0.5 0.0375 0.156996
0.219992 0.5 -0.0375 0.159391
0 0.5 0.225 0.148853
0 0.5 -0.225 0.162956
0 0.5 -0.231179 0.163034
0 0.5 0.231179 0.148554
0.0124865 0.5 0.231179 0.148554
0.0124865 0.5 -0.231179 0.163034
0.219993 0.5 0.1125 0.154105
0.219993 0.5 -0.1125 0.161326
0.151149 0.5 0.225 0.148906
0.151149 0.5 -0.225 0.163139
0.075776 0.5 0.2625 0.147044
0.075776 0.5 -0.2625 0.16343
0.288069 0.5 3.34766e-17 0.160739
0.219992 0.5 0.1875 0.150804
0.219992 0.5 -0.1875 0.162828
0 0.5 0.293821 0.145375
0 0.5 -0.293821 0.163639
0.0124865 0.5 -0.293821 0.163639
0.0124865 0.5 0.293821 0.145375
0.288069 0.5 0.075 0.157974
0.288069 0.5 -0.075 0.163004
0 0.5 0.3 0.145045
0 0.5 -0.3 0.16368
0 0.5 0.306179 0.144718
0 0.5 -0.306179 0.163724
0.0124865 0.5 0.306179 0.144718
0.0124865 0.5 -0.306179 0.163724
0.288069 0.5 0.15 0.154749
0.288069 0.5 -0.15 0.164763
0.151149 0.5 0.3 0.145071
0.151149 0.5 -0.3 0.163874
0.219992 0.5 0.2625 0.147119
0.219992 0.5 -0.2625 0.163803
0.075776 0.5 0.3375 0.143062
0.075776 0.5 -0.3375 0.163947
0.350249 0.5 0.0375 0.161819
0.350249 0.5 -0.0375 0.16446
0.288069 0.5 0.225 0.151094
0.288069 0.5 -0.225 0.166002
0.350249 0.5 0.1125 0.158701
0.350249 0.5 -0.1125 0.166537
0 0.5 0.368821 0.141265
0 0.5 -0.368821 0.163945
0.0124865 0.5 0.368821 0.141265
0.0124865 0.5 -0.368821 0.163945
0 0.5 0.375 0.14091
0 0.5 -0.375 0.163944
0 0.5 -0.381179 0.163946
0 0.5 0.381179 0.140557
0.0124865 0.5 0.381179 0.140557
0.0124865 0.5 -0.381179 0.163946
0.350249 0.5 0.1875 0.155126
0.350249 0.5 -0.1875 0.168055
0.219992 0.5 0.3375 0.143082
0.219992 0.5 -0.3375 0.16432
0.151149 0.5 0.375 0.140905
0.151149 0.5 -0.375 0.16414
0.411736 0.5 1.70099e-17 0.166425
0.288069 0.5 0.3 0.147043
0.288069 0.5 -0.3 0.166724
0.411736 0.5 0.075 0.163432
0.411736 0.5 -0.075 0.16886
0.075776 0.5 0.4125 0.138773
0.075776 0.5 -0.4125 0.163958
0.350249 0.5 -0.2625 0.169017
0.350249 0.5 0.2625 0.151087
0.411736 0.5 0.15 0.15992
0.411736 0.5 -0.15 0.170706
0 0.5 -0.443821 0.16376
0 0.5 0.443821 0.136865
0.0124865 0.5 0.443821 0.136865
0.0124865 0.5 -0.443821 0.16376
0 0.5 0.45 0.136487
0 0.5 -0.45 0.163721
0 0.5 -0.456179 0.163684
0 0.5 0.456179 0.136112
0.0124865 0.5 0.456179 0.136112
0.0124865 0.5 -0.456179 0.163684
0.219992 0.5 -0.4125 0.164338
0.219993 0.5 0.4125 0.138729
0.411736 0.5 0.225 0.155918
0.411736 0.5 -0.225 0.171956
0.467897 0.5 0.0375 0.168128
0.467897 0.5 -0.0375 0.170937
0.288069 0.5 0.375 0.142646
0.288069 0.5 -0.375 0.166933
0.151149 0.5 -0.45 0.16391
0.151149 0.5 0.45 0.136448
0.467897 0.5 0.1125 0.164736
0.467897 0.5 -0.1125 0.173142
0.350249 0.5 0.3375 0.146669
0.350249 0.5 -0.3375 0.169451
0.075776 0.5 -0.4875 0.163501
0.075776 0.5 0.4875 0.134217
0.467897 0.5 0.1875 0.160791
0.467897 0.5 -0.1875 0.174718
0.411736 0.5 0.3 0.151475
0.411736 0.5 -0.3 0.172623
0 0.5 -0.518821 0.163124
0 0.5 0.518821 0.132216
0.0124865 0.5 0.518821 0.132216
0.0124865 0.5 -0.518821 0.163124
0.523432 0.5 3.75966e-17 0.173402
0 0.5 0.525 0.13182
0 0.5 -0.525 0.163049
0.523432 0.5 0.075 0.170156
0.523432 0.5 -0.075 0.176012
0 0.5 -0.531179 0.162976
0 0.5 0.531179 0.131426
0.0124865 0.5 0.531179 0.131426
0.0124865 0.5 -0.531179 0.162976
0.288069 0.5 0.45 0.137944
0.288069 0.5 -0.45 0.166614
0.219992 0.5 -0.4875 0.163848
0.219992 0.5 0.4875 0.134104
0.467897 0.5 -0.2625 0.175661
0.467897 0.5 0.2625 0.156364
0.350249 0.5 0.4125 0.141911
0.350249 0.5 -0.4125 0.169327
0.523432 0.5 0.15 0.166307
0.523432 0.5 -0.15 0.177962
0.151149 0.5 0.525 0.131744
0.151149 0.5 -0.525 0.16322
0.411736 0.5 0.375 0.146647
0.411736 0.5 -0.375 0.17271
0.075776 0.5 0.5625 0.129437
0.075776 0.5 -0.5625 0.162613
0.523432 0.5 0.225 0.161901
0.523432 0.5 -0.225 0.179234
0.574156 0.5 0.0375 0.175548
0.574157 0.5 -0.0375 0.178601
0.467897 0.5 0.3375 0.151501
0.467897 0.5 -0.3375 0.175996
0.574156 0.5 0.1125 0.171835
0.574156 0.5 -0.1125 0.180965
0 0.5 -0.593821 0.162062
0 0.5 0.593821 0.127362
0.0124865 0.5 0.593821 0.127362
0.0124865 0.5 -0.593821 0.162062
0.288069 0.5 0.525 0.132986
0.288069 0.5 -0.525 0.165803
0 0.5 0.6 0.126951
0 0.5 -0.6 0.161953
0.350249 0.5 0.4875 0.136865
0.350249 0.5 -0.4875 0.168657
0.523432 0.5 -0.3 0.179839
0.523432 0.5 0.3 0.156999
0.219992 0.5 0.5625 0.129252
0.219992 0.5 -0.5625 0.162925
0.574156 0.5 0.1875 0.167505
0.574157 0.5 -0.1875 0.182611
0 0.5 -0.606179 0.161847
0 0.5 0.606179 0.126543
0.0124865 0.5 0.606179 0.126543
0.0124865 0.5 -0.606179 0.161847
0.411736 0.5 0.45 0.141485
0.411736 0.5 -0.45 0.172212
0.151149 0.5 0.6 0.126837
0.151149 0.5 -0.6 0.162105
0.467897 0.5 0.4125 0.146254
0.467897 0.5 -0.4125 0.175705
0.624316 0.5 2.64545e-17 0.181427
0.624316 0.5 0.075 0.177871
0.624316 0.5 -0.075 0.184258
0.574156 0.5 -0.2625 0.183533
0.574157 0.5 0.2625 0.162608
0.075776 0.5 0.6375 0.124479
0.075776 0.5 -0.6375 0.16131
0.624316 0.5 0.15 0.173632
0.624316 0.5 -0.15 0.186331
0.523432 0.5 0.375 0.151664
0.523432 0.5 -0.375 0.179785
0.350249 0.5 -0.5625 0.16751
0.350249 0.5 0.5625 0.131585
0.624316 0.5 0.225 0.168761
0.624316 0.5 -0.225 0.18763
0.288069 0.5 0.6 0.127824
0.288069 0.5 -0.6 0.164544
0.574157 0.5 0.3375 0.157216
0.574157 0.5 -0.3375 0.183757
0.411736 0.5 0.525 0.136049
0.411736 0.5 -0.525 0.171173
0 0.5 -0.668821 0.160602
0 0.5 0.668821 0.122348
0.0124865 0.5 0.668821 0.122348
0.0124865 0.5 -0.668821 0.160602
0.67013 0.5 0.0375 0.183902
0.67013 0.5 -0.0375 0.187248
0.219993 0.5 -0.6375 0.161578
0.219992 0.5 0.6375 0.124219
0 0.5 0.675 0.121926
0 0.5 -0.675 0.160461
0.467897 0.5 -0.4875 0.174811
0.467897 0.5 0.4875 0.140688
0.67013 0.5 0.1125 0.179805
0.67013 0.5 -0.1125 0.189797
0 0.5 -0.681179 0.160323
0 0.5 0.681179 0.121506
0.0124865 0.5 0.681179 0.121506
0.0124865 0.5 -0.681179 0.160323
0.523432 0.5 0.45 0.145959
0.523432 0.5 -0.45 0.179079
0.151149 0.5 0.675 0.121773
0.151149 0.5 -0.675 0.160588
0.624316 0.5 0.3 0.163324
0.624316 0.5 -0.3 0.188165
0.67013 0.5 0.1875 0.17501
0.67013 0.5 -0.1875 0.191524
0.574156 0.5 0.4125 0.151405
0.574156 0.5 -0.4125 0.183281
0.715434 0.5 3.51282e-17 0.19024
0.075776 0.5 0.7125 0.119386
0.075776 0.5 -0.7125 0.159628
0.715434 0.5 0.075 0.186324
0.715434 0.5 -0.075 0.193323
0.67013 0.5 0.2625 0.169575
0.67013 0.5 -0.2625 0.192422
0.350249 0.5 -0.6375 0.165905
0.350249 0.5 0.6375 0.126125
0.411736 0.5 0.6 0.1304
0.411736 0.5 -0.6 0.169639
0.624316 0.5 0.375 0.157401
0.624316 0.5 -0.375 0.187951
0.715434 0.5 0.15 0.181631
0.715434 0.5 -0.15 0.195536
0.467897 0.5 0.5625 0.134869
0.467897 0.5 -0.5625 0.17338
0.288069 0.5 0.675 0.122505
0.288069 0.5 -0.675 0.162864
0.523432 0.5 0.525 0.139956
0.523432 0.5 -0.525 0.177766
0 0.5 -0.743821 0.158775
0 0.5 0.743821 0.117217
0.0124865 0.5 -0.743821 0.158775
0.0124865 0.5 0.743821 0.117217
0.219992 0.5 0.7125 0.11905
0.219992 0.5 -0.7125 0.159846
0.715434 0.5 0.225 0.176225
0.715434 0.5 -0.225 0.196865
0 0.5 0.75 0.116787
0 0.5 -0.75 0.158606
0.67013 0.5 0.3375 0.16358
0.67013 0.5 -0.3375 0.192521
0.574157 0.5 0.4875 0.145243
0.574157 0.5 -0.4875 0.182128
0 0.5 -0.756179 0.158439
0 0.5 0.756179 0.11636
0.0124865 0.5 0.756179 0.11636
0.0124865 0.5 -0.756179 0.158439
0.756813 0.5 0.0375 0.192868
0.756813 0.5 -0.0375 0.19654
0.151149 0.5 0.75 0.116595
0.151149 0.5 -0.75 0.158705
0.756813 0.5 0.1125 0.188337
0.756813 0.5 -0.1125 0.199296
0.624316 0.5 -0.45 0.187002
0.624316 0.5 0.45 0.15107
0.715434 0.5 0.3 0.170181
0.715434 0.5 -0.3 0.197323
0.756813 0.5 0.1875 0.183013
0.756813 0.5 -0.1875 0.201109
0.67013 0.5 -0.4125 0.191826
0.67013 0.5 0.4125 0.157115
0.411736 0.5 0.675 0.124596
0.411736 0.5 -0.675 0.167646
0.467897 0.5 0.6375 0.128863
0.467897 0.5 -0.6375 0.171444
0.075776 0.5 0.7875 0.114201
0.075776 0.5 -0.7875 0.157599
0.350249 0.5 0.7125 0.120539
0.350249 0.5 -0.7125 0.163885
0.523432 0.5 0.6 0.133726
0.523432 0.5 -0.6 0.175901
0.797732 0.5 3.20924e-17 0.199526
0.756813 0.5 0.2625 0.176969
0.756814 0.5 -0.2625 0.201985
0.797732 0.5 0.075 0.195208
0.797732 0.5 -0.075 0.202893
0.288069 0.5 0.75 0.117079
0.288069 0.5 -0.75 0.160802
0.574156 0.5 -0.5625 0.180371
0.574156 0.5 0.5625 0.138809
0.715434 0.5 0.375 0.163592
0.715434 0.5 -0.375 0.196925
0.797732 0.5 0.15 0.19001
0.797732 0.5 -0.15 0.205263
0.624316 0.5 0.525 0.144416
0.624316 0.5 -0.525 0.18537
0.219992 0.5 0.7875 0.113787
0.219992 0.5 -0.7875 0.157761
0 0.5 -0.818821 0.156615
0 0.5 0.818821 0.112011
0.0124865 0.5 -0.818821 0.156615
0.0124865 0.5 0.818821 0.112011
0 0.5 0.825 0.111578
0 0.5 -0.825 0.15642
0.756813 0.5 -0.3375 0.201947
0.756813 0.5 0.3375 0.170295
0.67013 0.5 0.4875 0.150266
0.67013 0.5 -0.4875 0.190367
0.797732 0.5 0.225 0.184006
0.797732 0.5 -0.225 0.206627
0 0.5 -0.831179 0.156227
0 0.5 0.831179 0.111146
0.0124865 0.5 0.831179 0.111146
0.0124865 0.5 -0.831179 0.156227
0.835106 0.5 -0.0375 0.206181
0.835106 0.5 0.0375 0.202143
0.151149 0.5 0.825 0.111346
0.151149 0.5 -0.825 0.156489
0.835106 0.5 0.1125 0.197132
0.835106 0.5 -0.1125 0.209173
0.715434 0.5 0.45 0.156556
0.715434 0.5 -0.45 0.195693
0.797732 0.5 0.3 0.177289
0.797732 0.5 -0.3 0.207006
0.467897 0.5 0.7125 0.122732
0.467897 0.5 -0.7125 0.169054
0.523432 0.5 0.675 0.127342
0.523432 0.5 -0.675 0.173531
0.411736 0.5 0.75 0.118696
0.411736 0.5 -0.75 0.165242
0.835106 0.5 0.1875 0.191225
0.835106 0.5 -0.1875 0.211083
0.574156 0.5 0.6375 0.132184
0.574156 0.5 -0.6375 0.178054
0.350249 0.5 -0.7875 0.161491
0.350249 0.5 0.7875 0.114879
0.756813 0.5 -0.4125 0.200998
0.756814 0.5 0.4125 0.163104
0.075776 0.5 -0.8625 0.155256
0.075776 0.5 0.8625 0.108966
0.624316 0.5 0.6 0.137528
0.624316 0.5 -0.6 0.183119
0.872064 0.5 4.32235e-17 0.209095
0.288069 0.5 0.825 0.111595
0.288069 0.5 -0.825 0.158395
0.67013 0.5 0.5625 0.143131
0.67013 0.5 -0.5625 0.188225
0.872064 0.5 0.075 0.204341
0.872064 0.5 -0.075 0.212775
0.835106 0.5 0.2625 0.184513
0.835106 0.5 -0.2625 0.211942
0.797732 0.5 0.375 0.169966
0.797732 0.5 -0.375 0.206407
0.872064 0.5 0.15 0.198594
0.872064 0.5 -0.15 0.215309
0.715434 0.5 0.525 0.149171
0.715434 0.5 -0.525 0.193691
0.219992 0.5 0.8625 0.108479
0.219993 0.5 -0.8625 0.155358
0 0.5 -0.893821 0.154156
0 0.5 0.893821 0.106776
0.0124865 0.5 0.893821 0.106776
0.0124865 0.5 -0.893821 0.154156
0 0.5 0.9 0.106343
0 0.5 -0.9 0.153938
0.756813 0.5 0.4875 0.155499
0.756813 0.5 -0.4875 0.199189
0.872064 0.5 0.225 0.191943
0.872064 0.5 -0.225 0.216704
0.835106 0.5 0.3375 0.177101
0.835106 0.5 -0.3375 0.211761
0 0.5 0.906179 0.105911
0 0.5 -0.906179 0.153723
0.0124865 0.5 0.906179 0.105911
0.0124865 0.5 -0.906179 0.153723
0.90582 0.5 -0.0375 0.216077
0.905821 0.5 0.0375 0.211647
0.151149 0.5 0.9 0.106075
0.90582 0.5 0.1125 0.206127
0.90582 0.5 -0.1125 0.219321
0.151149 0.5 -0.901373 0.153887
0.523432 0.5 0.75 0.120871
0.523432 0.5 -0.75 0.170714
0.574157 0.5 0.7125 0.125442
0.574156 0.5 -0.7125 0.17524
0.797732 0.5 0.45 0.162158
0.797732 0.5 -0.45 0.204864
0.467897 0.5 0.7875 0.116539
0.467897 0.5 -0.7875 0.166262
0.624316 0.5 0.675 0.130488
0.624316 0.5 -0.675 0.180311
0.411736 0.5 0.825 0.112755
0.411736 0.5 -0.825 0.162473
0.872064 0.5 0.3 0.184497
0.872064 0.5 -0.3 0.217
0.67013 0.5 0.6375 0.135804
0.67013 0.5 -0.6375 0.18546
0.90582 0.5 0.1875 0.199597
0.90582 0.5 -0.1875 0.221306
0.350249 0.5 -0.8625 0.158766
0.350249 0.5 0.8625 0.109195
0.835106 0.5 0.4125 0.169121
0.835106 0.5 -0.4125 0.210541
0.715434 0.5 0.6 0.141544
0.715434 0.5 -0.6 0.190995
0.939201 0.5 4.40909e-17 0.218639
0.075776 0.5 -0.9375 0.152635
0.075776 0.5 0.9375 0.10373
0.939201 0.5 0.075 0.213408
0.939201 0.5 -0.075 0.222672
0.756814 0.5 0.5625 0.147586
0.756814 0.5 -0.5625 0.196607
0.905821 0.5 0.2625 0.192166
0.905821 0.5 -0.2625 0.222131
0.288069 0.5 0.9 0.1061
0.288069 0.5 -0.901373 0.155601
0.872064 0.5 0.375 0.176382
0.872064 0.5 -0.375 0.21619
0.939201 0.5 -0.15 0.225392
0.939201 0.5 0.15 0.20707
0.797732 0.5 0.525 0.153978
0.797732 0.5 -0.525 0.202452
0.219993 0.5 -0.9375 0.152676
0.219992 0.5 0.9375 0.103178
0.939201 0.5 0.225 0.199726
0.939201 0.5 -0.225 0.226812
0.90582 0.5 0.3375 0.183964
0.90582 0.5 -0.3375 0.221814
0.835106 0.5 -0.4875 0.208362
0.835107 0.5 0.4875 0.160698
0 0.5 0.968821 0.101551
0 0.5 -0.968821 0.151434
0.0124865 0.5 0.968821 0.101551
0.0124865 0.5 -0.968821 0.151434
0.969689 0.5 0.0375 0.220838
0.969689 0.5 -0.0375 0.225715
0.574156 0.5 0.7875 0.118657
0.574156 0.5 -0.7875 0.171992
0 0.5 0.975 0.101121
0 0.5 -0.975 0.151196
0.624316 0.5 0.75 0.123378
0.624316 0.5 -0.75 0.177017
0.969689 0.5 0.1125 0.214756
0.96969 0.5 -0.1125 0.229284
0.523432 0.5 0.825 0.114379
0.523432 0.5 -0.825 0.167509
0.67013 0.5 0.7125 0.128374
0.67013 0.5 -0.7125 0.182149
0 0.5 -0.981179 0.15096
0 0.5 0.981179 0.100691
0.467897 0.5 0.8625 0.110342
0.467897 0.5 -0.8625 0.163121
0.0124865 0.5 0.981179 0.100691
0.0124865 0.5 -0.981179 0.15096
0.872064 0.5 0.45 0.167742
0.872064 0.5 -0.45 0.21431
0.715434 0.5 0.675 0.133776
0.715434 0.5 -0.675 0.187684
0.939201 0.5 0.3 0.191508
0.939201 0.5 -0.3 0.227043
0.151149 0.5 0.975 0.100818
0.151149 0.5 -0.975 0.151202
0.969689 0.5 0.1875 0.207556
0.969689 0.5 -0.1875 0.231358
0.756814 0.5 0.6375 0.139488
0.756814 0.5 -0.6375 0.193334
0.411736 0.5 0.9 0.106825
0.411736 0.5 -0.901373 0.159295
0.90582 0.5 0.4125 0.175129
0.90582 0.5 -0.4125 0.2203
0.797732 0.5 0.6 0.145554
0.797732 0.5 -0.6 0.199261
1.00005 0.5 1.48897e-17 0.227916
0.350249 0.5 -0.9375 0.155754
0.350249 0.5 0.9375 0.103532
1.00005 0.5 0.0749309 0.222195
1.00005 0.5 -0.0749309 0.232318
0.969689 0.5 0.2625 0.199366
0.969689 0.5 -0.2625 0.232153
0.835106 0.5 0.5625 0.151953
0.835106 0.5 -0.5625 0.205302
1.00005 0.5 0.149862 0.21524
1.00005 0.5 -0.149862 0.235196
0.939201 0.5 0.375 0.182561
0.939201 0.5 -0.375 0.226043
0.075776 0.5 1.0125 0.098522
0.075776 0.5 -1.0125 0.149772
0.288069 0.5 0.975 0.100635
0.288069 0.5 -0.975 0.15271
0.872064 0.5 0.525 0.158714
0.872064 0.5 -0.525 0.211448
1.00005 0.5 0.224793 0.207167
1.00005 0.5 -0.224793 0.236578
0.96969 0.5 0.3375 0.190342
0.96969 0.5 -0.3375 0.231773
1.0271 0.5 0.0368226 0.229991
1.0271 0.5 -0.0368226 0.23523
0.90582 0.5 0.4875 0.165837
0.90582 0.5 -0.4875 0.217708
1.0271 0.5 0.110468 0.223437
1.0271 0.5 -0.110468 0.239057
0.67013 0.5 -0.7875 0.178372
0.67013 0.5 0.7875 0.120926
0.624316 0.5 0.825 0.116273
0.624316 0.5 -0.825 0.17331
0.219992 0.5 -1.0125 0.149748
0.219993 0.5 1.0125 0.0978992
0.574156 0.5 0.8625 0.111894
0.574156 0.5 -0.8625 0.168378
0.715434 0.5 0.75 0.12596
0.715434 0.5 -0.75 0.183844
0.756813 0.5 -0.7125 0.189463
0.756814 0.5 0.7125 0.131306
0.523432 0.5 0.9 0.107925
0.939201 0.5 0.45 0.173051
0.939201 0.5 -0.45 0.223823
1.04168 0.5 0 0.235391
0.523432 0.5 -0.901373 0.163871
1.0271 0.5 0.184113 0.215653
1.0271 0.5 -0.184113 0.24113
0 0.5 1.04382 0.0963724
0 0.5 -1.04382 0.148484
0.0124865 0.5 1.04382 0.0963724
0.0124865 0.5 -1.04382 0.148484
1.00005 0.5 0.299723 0.19813
1.00005 0.5 -0.299723 0.236756
1.04168 0.5 0.0729162 0.229427
1.04168 0.5 -0.0729162 0.240017
0.797732 0.5 0.675 0.137009
0.797732 0.5 -0.675 0.195392
0.467897 0.5 -0.9375 0.159685
0.467897 0.5 0.9375 0.104194
0 0.5 1.05 0.0959475
0 0.5 -1.05 0.148228
0.835106 0.5 0.6375 0.143046
0.835106 0.5 -0.6375 0.201474
1.04168 0.5 0.145832 0.222184
1.04168 0.5 -0.145832 0.243038
0.969689 0.5 -0.4125 0.229992
0.96969 0.5 0.4125 0.180643
0 0.5 1.05618 0.0955237
0 0.5 -1.05618 0.147975
0.0124865 0.5 1.05618 0.0955237
0.0124865 0.5 -1.05618 0.147975
1.05695 0.5 -0.0360764 0.240836
1.05695 0.5 0.0360764 0.235476
0.411736 0.5 0.975 0.100956
0.411736 0.5 -0.975 0.156035
0.872064 0.5 0.6 0.149442
0.872064 0.5 -0.6 0.207711
1.0271 0.5 0.257759 0.206789
1.0271 0.5 -0.257759 0.241848
0.151149 0.5 -1.05 0.148201
0.151149 0.5 1.05 0.0956065
1.05695 0.5 0.108229 0.228796
1.05695 0.5 -0.108229 0.244844
1.04168 0.5 0.218749 0.213781
1.04168 0.5 -0.218749 0.244433
0.90582 0.5 0.5625 0.156218
0.90582 0.5 -0.5625 0.214108
1.00005 0.5 0.374654 0.1883
1.00005 0.5 -0.374654 0.235569
0.350249 0.5 1.0125 0.0979344
0.350249 0.5 -1.0125 0.152498
1.05695 0.5 0.180382 0.220877
1.05695 0.5 -0.180382 0.247005
0.939201 0.5 0.525 0.163138
0.939201 0.5 -0.525 0.220487
1.0271 0.5 -0.331404 0.241475
1.0271 0.5 0.331404 0.197016
1.08112 0.5 3.20924e-17 0.242809
1.04168 0.5 0.291665 0.20438
1.04168 0.5 -0.291665 0.24464
1.08112 0.5 0.0709442 0.236661
1.08112 0.5 -0.0709442 0.247631
0.96969 0.5 0.4875 0.170456
0.96969 0.5 -0.4875 0.22701
1.05695 0.5 0.252535 0.211875
1.05695 0.5 -0.252535 0.247717
0.288069 0.5 1.05 0.0952315
0.288069 0.5 -1.05 0.149511
0.075776 0.5 -1.0875 0.146699
0.075776 0.5 1.0875 0.0933832
1.08112 0.5 0.141888 0.229223
1.08112 0.5 -0.141888 0.250847
0.715434 0.5 0.825 0.118182
0.715434 0.5 -0.825 0.179566
0.756814 0.5 0.7875 0.123136
0.756814 0.5 -0.7875 0.18509
0.67013 0.5 0.8625 0.113534
0.67013 0.5 -0.8625 0.174209
0.797732 0.5 0.75 0.128448
0.797732 0.5 -0.75 0.190949
0.624316 0.5 0.9 0.10924
1.00005 0.5 0.449585 0.177863
1.00005 0.5 -0.449585 0.232953
0.624316 0.5 -0.901373 0.169142
0.835106 0.5 0.7125 0.134085
0.835106 0.5 -0.7125 0.196992
0.574156 0.5 -0.9375 0.16446
0.574156 0.5 0.9375 0.105214
1.10076 0.5 0.0349809 0.243834
1.10076 0.5 -0.0349809 0.249417
1.08112 0.5 0.212832 0.220615
1.08112 0.5 -0.212832 0.252346
0.872064 0.5 0.675 0.140071
0.872064 0.5 -0.675 0.203233
1.04168 0.5 -0.364581 0.243475
1.04168 0.5 0.364581 0.194156
1.0271 0.5 -0.405049 0.239441
1.0271 0.5 0.405049 0.186515
1.05695 0.5 0.324688 0.201955
1.05695 0.5 -0.324688 0.247437
1.10076 0.5 -0.104943 0.253692
1.10076 0.5 0.104943 0.236913
0.523432 0.5 0.975 0.101566
0.523432 0.5 -0.975 0.16017
0.90582 0.5 0.6375 0.146433
0.90582 0.5 -0.6375 0.209671
0.219992 0.5 1.0875 0.0926833
0.219992 0.5 -1.0875 0.146612
1.11376 0.5 1.15648e-18 0.249117
0.939201 0.5 0.6 0.152997
0.939201 0.5 -0.6 0.21617
1.10076 0.5 0.174905 0.228735
1.10076 0.5 -0.174905 0.256068
0.467897 0.5 -1.0125 0.156004
0.467897 0.5 1.0125 0.0981548
1.11376 0.5 0.0693118 0.242784
1.11376 0.5 -0.0693118 0.254118
1.08112 0.5 0.283777 0.211
1.08112 0.5 -0.285603 0.25245
0 0.5 -1.11882 0.145338
0 0.5 1.11882 0.091272
0.0124865 0.5 1.11882 0.091272
0.0124865 0.5 -1.11882 0.145338
0.969689 0.5 0.5625 0.159931
0.969689 0.5 -0.5625 0.222852
1.11376 0.5 0.138624 0.235144
1.11376 0.5 -0.138624 0.257508
0 0.5 1.125 0.0908547
0 0.5 -1.125 0.145068
1.10076 0.5 0.244866 0.219462
1.10076 0.5 -0.244866 0.256826
0.411736 0.5 -1.05 0.152462
0.411736 0.5 1.05 0.0951941
1.05695 0.5 -0.396841 0.244953
1.05695 0.5 0.396841 0.191299
1.00005 0.5 0.524516 0.167013
1.00005 0.5 -0.525427 0.228991
1.04168 0.5 -0.437497 0.240797
1.04168 0.5 0.437497 0.183301
0 0.5 1.13118 0.0904383
0 0.5 -1.13118 0.144801
0.0124865 0.5 -1.13118 0.144801
0.0124865 0.5 1.13118 0.0904383
1.11376 0.5 0.207935 0.226319
1.0271 0.5 -0.478694 0.236056
1.0271 0.5 0.478694 0.175492
1.11376 0.5 -0.213207 0.259115
1.07791 0.5 -0.354722 0.250663
0.151149 0.5 1.125 0.0904771
0.151149 0.5 -1.125 0.145008
1.08112 0.5 0.354722 0.200547
1.13882 0.5 0.0340295 0.251135
1.13882 0.5 -0.0340295 0.256939
0.350249 0.5 1.0875 0.092432
0.350249 0.5 -1.0875 0.14904
1.13882 0.5 0.102088 0.243968
1.13882 0.5 -0.102088 0.261388
1.10076 0.5 0.314829 0.209254
1.10076 0.5 -0.314829 0.256672
0.756813 0.5 -0.8625 0.180317
0.756814 0.5 0.8625 0.115063
0.797732 0.5 0.825 0.119967
0.797732 0.5 -0.825 0.186044
1.11376 0.5 -0.277247 0.259336
1.11376 0.5 0.277247 0.21647
0.835106 0.5 0.7875 0.125186
0.835106 0.5 -0.7875 0.191975
0.715434 0.5 0.9 0.110518
0.872064 0.5 0.75 0.130721
0.872064 0.5 -0.75 0.198136
0.715434 0.5 -0.901373 0.174799
1.13882 0.5 -0.170147 0.263946
1.13882 0.5 0.170147 0.235519
0.67013 0.5 -0.9375 0.169738
0.67013 0.5 0.9375 0.106268
0.90582 0.5 0.7125 0.136635
0.90582 0.5 -0.7125 0.204528
1.05695 0.5 -0.468994 0.241481
1.05695 0.5 0.468994 0.180108
0.939201 0.5 0.675 0.142809
0.939201 0.5 -0.675 0.21105
0.624316 0.5 0.975 0.102341
0.624316 0.5 -0.975 0.164942
1.04168 0.5 -0.510414 0.236763
1.04168 0.5 0.510414 0.172023
0.969689 0.5 0.6375 0.149322
0.969689 0.5 -0.6375 0.217799
0.288069 0.5 1.125 0.0899236
0.288069 0.5 -1.125 0.146124
1.16179 0.5 1.04083e-17 0.258955
1.08112 0.5 -0.425666 0.248917
1.08112 0.5 0.425666 0.189448
1.13882 0.5 -0.238206 0.264122
1.13882 0.5 0.238206 0.225952
1.16179 0.5 0.0669104 0.252322
1.16179 0.5 -0.0669104 0.264229
0.574156 0.5 -1.0125 0.160301
0.574156 0.5 1.0125 0.098673
0.998291 0.5 -0.599796 0.223696
0.075776 0.5 -1.1625 0.143451
0.075776 0.5 1.1625 0.0883357
1.00005 0.5 0.599447 0.155947
1.10076 0.5 -0.384791 0.254716
1.10076 0.5 0.384791 0.198293
1.0271 0.5 0.55234 0.164153
1.0271 0.5 -0.55234 0.23319
1.11376 0.5 -0.346559 0.258402
1.11376 0.5 0.346559 0.205769
1.16179 0.5 0.133821 0.244344
1.16179 0.5 -0.133821 0.267703
0.523432 0.5 -1.05 0.15615
0.523432 0.5 1.05 0.095356
1.17463 0.5 0.0331343 0.258446
1.17463 0.5 -0.0331343 0.264466
1.15837 0.5 -0.200731 0.268758
1.17463 0.5 0.0994029 0.251032
1.17463 0.5 -0.0994029 0.269148
1.16179 0.5 0.200074 0.23509
1.13882 0.5 -0.306265 0.264684
1.13882 0.5 0.306265 0.215424
0.219992 0.5 1.1625 0.0875716
0.219992 0.5 -1.1625 0.143302
0.467897 0.5 -1.0875 0.152127
0.467897 0.5 1.0875 0.0922691
1.17463 0.5 0.165672 0.242308
1.17463 0.5 -0.165672 0.271881
1.05695 0.5 0.541147 0.168594
1.05695 0.5 -0.541147 0.237413
1.18772 0.5 -1.15648e-18 0.264227
1.11376 0.5 -0.41587 0.255832
1.11376 0.5 0.41587 0.194403
1.18772 0.5 0.0655187 0.257423
1.08112 0.5 0.49661 0.177908
1.08112 0.5 -0.49661 0.244926
1.18772 0.5 -0.0699161 0.269658
1.10076 0.5 -0.454752 0.251534
1.10076 0.5 0.454752 0.186772
1.16179 0.5 0.267642 0.224868
1.16179 0.5 -0.267642 0.270047
0 0.5 1.19382 0.0862793
0 0.5 -1.19382 0.14203
0.0124865 0.5 -1.19382 0.14203
0.0124865 0.5 1.19382 0.0862793
1.04168 0.5 -0.58333 0.231571
1.04168 0.5 0.58333 0.160514
1.18772 0.5 0.131228 0.249437
1.18772 0.5 -0.131228 0.273211
1.17463 0.5 0.23194 0.232446
1.17463 0.5 -0.23194 0.272777
0.411736 0.5 1.125 0.0895643
0.411736 0.5 -1.125 0.14871
1.13882 0.5 0.374324 0.204119
1.13882 0.5 -0.374324 0.262773
0 0.5 1.2 0.085873
0 0.5 -1.2 0.141748
0.90582 0.5 0.7875 0.12692
0.90582 0.5 -0.7875 0.198807
0.872064 0.5 0.825 0.121492
0.872064 0.5 -0.825 0.192557
0.835106 0.5 -0.8625 0.186541
0.835106 0.5 0.8625 0.116432
1.18534 0.5 0.196842 0.239459
0.939201 0.5 0.75 0.132716
0.939201 0.5 -0.75 0.205272
0.797732 0.5 0.9 0.11165
1.0271 0.5 -0.625985 0.225754
1.0271 0.5 0.625985 0.152675
0.969689 0.5 0.7125 0.138789
0.96969 0.5 -0.7125 0.211973
0.797732 0.5 -0.901373 0.180621
1.18772 0.5 -0.196842 0.275381
0.756813 0.5 -0.9375 0.175236
0.756813 0.5 0.9375 0.10717
0.998291 0.5 -0.67477 0.217908
1.15863 0.5 0.334552 0.213341
0 0.5 1.20618 0.0854674
0 0.5 -1.20618 0.141468
1.00005 0.5 0.674378 0.144848
0.0124865 0.5 -1.20618 0.141468
0.0124865 0.5 1.20618 0.0854674
1.16179 0.5 -0.334552 0.269075
0.715434 0.5 0.975 0.103038
0.715434 0.5 -0.975 0.170041
0.151149 0.5 1.2 0.0854601
0.151149 0.5 -1.2 0.141656
1.20942 0.5 -0.0322645 0.272033
1.20942 0.5 0.0322645 0.265795
1.18534 0.5 0.249669 0.231178
1.17463 0.5 0.298209 0.221599
1.17463 0.5 -0.298209 0.272781
1.20942 0.5 0.0967935 0.258142
1.20942 0.5 -0.0967935 0.276922
0.350249 0.5 1.1625 0.0870469
0.350249 0.5 -1.1625 0.145418
0.67013 0.5 1.0125 0.0991862
0.67013 0.5 -1.0125 0.165033
1.11376 0.5 -0.485183 0.251844
1.11376 0.5 0.485183 0.18258
1.18772 0.5 -0.262456 0.275865
1.10076 0.5 -0.524714 0.246776
1.10076 0.5 0.524714 0.17491
1.20942 0.5 0.161322 0.249347
1.20942 0.5 -0.161322 0.28007
1.08112 0.5 -0.567554 0.239684
1.08112 0.5 0.567554 0.166124
0.624316 0.5 1.05 0.0956318
0.624316 0.5 -1.05 0.160416
1.13882 0.5 0.442383 0.192231
1.13882 0.5 -0.442383 0.259551
1.05695 0.5 -0.6133 0.231744
1.05695 0.5 0.6133 0.156929
1.15863 0.5 0.401463 0.201544
1.16179 0.5 -0.401463 0.26652
0.574156 0.5 1.0875 0.0923266
0.574157 0.5 -1.0875 0.15596
1.17463 0.5 0.364477 0.209953
1.17463 0.5 -0.364477 0.270895
1.20942 0.5 0.225851 0.239204
1.20942 0.5 -0.225851 0.281079
1.23036 0.5 -1.38778e-17 0.274098
1.04168 0.5 -0.656246 0.225494
1.04168 0.5 0.656246 0.148954
1.23036 0.5 -0.0634819 0.280102
1.23036 0.5 0.0634819 0.267007
1.18772 0.5 0.32807 0.218089
1.18772 0.5 -0.32807 0.274955
0.288069 0.5 1.2 0.0847401
0.288069 0.5 -1.2 0.142586
1.23036 0.5 0.126964 0.258531
1.23036 0.5 -0.126964 0.283838
0.075776 0.5 -1.2375 0.140058
0.075776 0.5 1.2375 0.0834192
0.523432 0.5 1.125 0.0893299
0.523432 0.5 -1.125 0.151966
1.0271 0.5 -0.69963 0.219317
1.0271 0.5 0.69963 0.141209
1.24274 0.5 -0.0314313 0.280048
1.24274 0.5 0.0314313 0.273576
1.20942 0.5 0.29038 0.228054
1.20942 0.5 -0.29038 0.281152
1.11376 0.5 -0.554494 0.246553
1.11376 0.5 0.554494 0.170501
1.23036 0.5 0.190445 0.2488
1.23036 0.5 -0.190445 0.285901
1.24274 0.5 0.0942942 0.265668
1.24274 0.5 -0.0942942 0.28516
1.13882 0.5 -0.510442 0.254746
1.13882 0.5 0.510442 0.179984
0.998291 0.5 -0.749744 0.211445
0.969689 0.5 0.7875 0.128482
0.969689 0.5 -0.7875 0.205574
1.00005 0.5 0.749309 0.133813
1.15863 0.5 0.468373 0.189261
0.939201 0.5 0.825 0.122795
0.939201 0.5 -0.825 0.198996
1.2484 0.5 -0.0653061 0.284432
0.90582 0.5 0.8625 0.117403
0.90582 0.5 -0.8625 0.192688
1.17463 0.5 -0.430746 0.267707
1.17463 0.5 0.430746 0.197697
1.10076 0.5 -0.594676 0.241027
1.10076 0.5 0.594676 0.162887
1.18772 0.5 0.393684 0.20601
1.18772 0.5 -0.393684 0.272437
1.24274 0.5 -0.157157 0.288328
1.24274 0.5 0.157157 0.256414
1.16179 0.5 -0.468373 0.262479
0.467897 0.5 -1.1625 0.148103
0.467897 0.5 1.1625 0.0865436
0.872064 0.5 0.9 0.112494
1.25401 0.5 0 0.279325
0.872064 0.5 -0.901373 0.186444
1.24906 0.5 -0.125094 0.288463
0.835106 0.5 0.9375 0.10791
0.835106 0.5 -0.9375 0.180803
1.25401 0.5 0.0622994 0.272064
1.08112 0.5 -0.638498 0.23351
1.08112 0.5 0.638498 0.154291
1.23036 0.5 0.253927 0.237973
1.23036 0.5 -0.253927 0.286497
0.219992 0.5 1.2375 0.082583
0.219992 0.5 -1.2375 0.139848
1.05695 0.5 -0.685452 0.225197
1.05695 0.5 0.685452 0.145318
0.797732 0.5 0.975 0.103571
0.797732 0.5 -0.975 0.175261
1.25401 0.5 0.124599 0.263406
1.20942 0.5 0.354909 0.21608
1.20942 0.5 -0.354909 0.279359
1.24274 0.5 0.220019 0.245987
1.24274 0.5 -0.220019 0.289455
1.24906 0.5 -0.187641 0.290652
0.756813 0.5 -1.0125 0.169936
0.756813 0.5 1.0125 0.0995187
1.25401 0.5 0.186898 0.253483
0.411736 0.5 1.2 0.0840923
0.411736 0.5 -1.2 0.144824
0 0.5 1.26882 0.0814231
0 0.5 -1.26882 0.13859
0.0124865 0.5 -1.26882 0.13859
0.0124865 0.5 1.26882 0.0814231
0.715434 0.5 -1.05 0.164955
0.715434 0.5 1.05 0.0958001
1.23036 0.5 0.31741 0.226213
1.23036 0.5 -0.31741 0.285682
1.04168 0.5 -0.729162 0.218695
1.04168 0.5 0.729162 0.137481
1.18772 0.5 -0.459298 0.268398
1.18772 0.5 0.459298 0.193429
1.24274 0.5 0.282882 0.23453
1.24274 0.5 -0.282882 0.289613
0 0.5 1.275 0.0810287
0 0.5 -1.275 0.1383
1.27472 0.5 -0.0306319 0.287884
1.27472 0.5 0.0306319 0.281179
1.17463 0.5 -0.497015 0.262814
1.17463 0.5 0.497015 0.185067
1.15837 0.5 0.534151 0.177379
1.11376 0.5 0.62266 0.158319
1.11376 0.5 -0.623806 0.240278
1.13882 0.5 -0.578501 0.248858
1.13882 0.5 0.578501 0.16754
0.67013 0.5 1.0875 0.0923439
0.67013 0.5 -1.0875 0.160162
1.27472 0.5 -0.0918959 0.292932
1.27472 0.5 0.0918959 0.273026
1.25401 0.5 -0.249197 0.292137
1.25401 0.5 0.249197 0.24245
1.16179 0.5 -0.535284 0.257045
1.20942 0.5 0.419438 0.203473
1.20942 0.5 -0.419438 0.276187
0 0.5 1.28118 0.0806349
0 0.5 -1.28118 0.138011
0.0124865 0.5 1.28118 0.0806349
0.0124865 0.5 -1.28118 0.138011
1.27472 0.5 0.15316 0.263516
1.27472 0.5 -0.15316 0.296323
0.151149 0.5 -1.275 0.138178
0.151149 0.5 1.275 0.0805808
1.0271 0.5 -0.773275 0.211231
1.0271 0.5 0.773275 0.129777
1.10076 0.5 0.664638 0.150919
1.10076 0.5 -0.664638 0.234336
0.350249 0.5 1.2375 0.0818142
0.350249 0.5 -1.2375 0.141671
0.624316 0.5 1.125 0.0891571
0.624316 0.5 -1.125 0.155745
1.23036 0.5 -0.380892 0.283221
1.23036 0.5 0.380892 0.213706
1.24274 0.5 0.345745 0.222223
1.24274 0.5 -0.345745 0.287932
1.2906 0.5 0 0.288531
1.2906 0.5 -0.0604698 0.294664
1.2906 0.5 0.0604698 0.280975
1.25401 0.5 0.311497 0.230468
1.25401 0.5 -0.311497 0.291525
1.27472 0.5 -0.214423 0.297673
1.27472 0.5 0.214423 0.252813
1.08112 0.5 0.709442 0.142608
1.08112 0.5 -0.709442 0.226554
0.998291 0.5 -0.824719 0.205323
1.00005 0.5 0.824239 0.123057
1.2906 0.5 -0.12094 0.299153
1.2906 0.5 0.12094 0.272003
0.574156 0.5 -1.1625 0.151491
0.574156 0.5 1.1625 0.0862026
0.969689 0.5 0.8625 0.118357
0.969689 0.5 -0.8625 0.198732
1.18772 0.5 -0.524912 0.262906
1.18772 0.5 0.524912 0.180562
1.05695 0.5 -0.757605 0.218042
1.05695 0.5 0.757605 0.133931
0.939201 0.5 0.9 0.113134
1.30091 0.5 0.0299772 0.287652
1.30091 0.5 -0.0299772 0.294561
0.939201 0.5 -0.901373 0.192163
1.20942 0.5 -0.483967 0.271289
1.20942 0.5 0.483967 0.190465
1.17463 0.5 0.563284 0.172251
1.17463 0.5 -0.563284 0.256784
1.2906 0.5 -0.181409 0.301597
1.2906 0.5 0.181409 0.261748
0.90582 0.5 0.9375 0.108231
0.90582 0.5 -0.9375 0.186279
1.30091 0.5 -0.0899316 0.300037
1.30091 0.5 0.0899316 0.279286
1.27472 0.5 0.275687 0.241059
1.27472 0.5 -0.275687 0.298104
0.288069 0.5 1.275 0.079712
0.288069 0.5 -1.275 0.138933