# pMean  POINT_DATA 63140
# x  y  z  pMean
0 0.1 0 0.179472
0 0.1 -0.0179898 0.180033
0 0.1 0.0179898 0.178914
0.0363518 0.1 -0.0179898 0.180033
0.0363518 0.1 0.0179898 0.178914
0 0.1 -0.0570102 0.181114
0 0.1 0.0570102 0.177572
0.0363518 0.1 0.0570102 0.177572
0.0363518 0.1 -0.0570102 0.181114
0 0.1 0.075 0.176895
0 0.1 -0.075 0.181547
0.075776 0.1 -0.0375 0.180644
0.075776 0.1 0.0375 0.178308
0 0.1 0.0929898 0.17622
0 0.1 -0.0929898 0.18198
0.0363518 0.1 0.0929898 0.17622
0.0363518 0.1 -0.0929898 0.18198
0 0.1 0.13201 0.174635
0 0.1 -0.13201 0.182818
0.075776 0.1 0.1125 0.175489
0.075776 0.1 -0.1125 0.182456
0.0363518 0.1 0.13201 0.174635
0.0363518 0.1 -0.13201 0.182818
0 0.1 0.15 0.17385
0 0.1 -0.15 0.183156
0.150379 0.1 -8.67362e-19 0.173257
0.150379 0.1 0.0710023 0.170937
0 0.1 0.16799 0.173066
0 0.1 -0.16799 0.18349
0.150379 0.1 -0.075 0.1755
0.0363518 0.1 0.16799 0.173066
0.0363518 0.1 -0.16799 0.18349
0.075776 0.1 0.1875 0.172217
0.075776 0.1 -0.1875 0.183859
0 0.1 0.20701 0.171247
0 0.1 -0.20701 0.184138
0.0363518 0.1 0.20701 0.171247
0.0363518 0.1 -0.20701 0.184138
0.150379 0.1 -0.15 0.177225
0.150379 0.1 0.15 0.167266
0.219992 0.1 -0.0375 0.168653
0.219992 0.1 0.0375 0.165999
0 0.1 0.225 0.170355
0 0.1 -0.225 0.184397
0 0.1 0.24299 0.169464
0 0.1 -0.24299 0.184656
0.0363518 0.1 0.24299 0.169464
0.0363518 0.1 -0.24299 0.184656
0.219992 0.1 0.1125 0.162827
0.219993 0.1 -0.1125 0.170806
0.150379 0.1 -0.225 0.178453
0.150379 0.1 0.225 0.163563
0.075776 0.1 -0.2625 0.184942
0.075776 0.1 0.2625 0.168499
0 0.1 -0.28201 0.185111
0 0.1 0.28201 0.167424
0.0363518 0.1 -0.28201 0.185111
0.0363518 0.1 0.28201 0.167424
0.287374 0.1 0 0.170259
0.219992 0.1 -0.1875 0.172329
0.219993 0.1 0.1875 0.159137
0.287374 0.1 0.0710023 0.167565
0.287374 0.1 -0.075 0.172672
0 0.1 0.3 0.166436
0 0.1 -0.3 0.18527
0 0.1 0.31799 0.165449
0 0.1 -0.31799 0.185432
0.0363518 0.1 0.31799 0.165449
0.0363518 0.1 -0.31799 0.185432
0.287374 0.1 0.15 0.163844
0.287374 0.1 -0.15 0.17451
0.150379 0.1 -0.3 0.179194
0.150379 0.1 0.3 0.15944
0.219993 0.1 -0.2625 0.173234
0.219993 0.1 0.2625 0.155025
0.075776 0.1 0.3375 0.164379
0.075776 0.1 -0.3375 0.185608
0.350249 0.1 0.0375 0.171708
0.350249 0.1 -0.0375 0.174423
0 0.1 -0.35701 0.185642
0 0.1 0.35701 0.163211
0.0363518 0.1 0.35701 0.163211
0.0363518 0.1 -0.35701 0.185642
0.287374 0.1 0.225 0.159892
0.287374 0.1 -0.225 0.175748
0.350249 0.1 0.1125 0.168459
0.350249 0.1 -0.1125 0.176552
0 0.1 0.375 0.162136
0 0.1 -0.375 0.185677
0 0.1 -0.39299 0.185716
0 0.1 0.39299 0.161061
0.0363518 0.1 -0.39299 0.185716
0.0363518 0.1 0.39299 0.161061
0.350249 0.1 -0.1875 0.178099
0.350249 0.1 0.1875 0.164705
0.219992 0.1 0.3375 0.150501
0.219993 0.1 -0.3375 0.173555
0.150379 0.1 0.375 0.154935
0.150379 0.1 -0.375 0.179396
0.411108 0.1 0 0.17718
0.287374 0.1 0.3 0.155503
0.287374 0.1 -0.3 0.1764
0.411108 0.1 0.0710023 0.174287
0.411108 0.1 -0.075 0.17971
0.075776 0.1 0.4125 0.159898
0.075776 0.1 -0.4125 0.185757
0 0.1 0.43201 0.158644
0 0.1 -0.43201 0.185652
0.0363518 0.1 0.43201 0.158644
0.0363518 0.1 -0.43201 0.185652
0.411108 0.1 -0.15 0.181593
0.411108 0.1 0.15 0.170296
0.350249 0.1 -0.2625 0.179074
0.350249 0.1 0.2625 0.160458
0 0.1 0.45 0.15749
0 0.1 -0.45 0.185559
0.219992 0.1 -0.4125 0.173245
0.219992 0.1 0.4125 0.145627
0 0.1 0.46799 0.156337
0 0.1 -0.46799 0.185469
0.411108 0.1 0.225 0.166019
0.411108 0.1 -0.225 0.182833
0.467897 0.1 -0.0375 0.182614
0.467897 0.1 0.0375 0.179635
0.0363518 0.1 0.46799 0.156337
0.0363518 0.1 -0.46799 0.185469
0.287374 0.1 0.375 0.150727
0.287374 0.1 -0.375 0.176447
0.150379 0.1 0.45 0.150112
0.150379 0.1 -0.45 0.179041
0.467897 0.1 0.1125 0.175994
0.467897 0.1 -0.1125 0.184904
0.350249 0.1 0.3375 0.155793
0.350249 0.1 -0.3375 0.179475
0.075776 0.1 -0.4875 0.185371
0.075776 0.1 0.4875 0.155088
0.467897 0.1 0.1875 0.171722
0.467897 0.1 -0.1875 0.186469
0 0.1 0.50701 0.15376
0 0.1 -0.50701 0.185129
0.0363518 0.1 -0.50701 0.185129
0.0363518 0.1 0.50701 0.15376
0.411108 0.1 0.3 0.161257
0.411108 0.1 -0.3 0.183435
0.522865 0.1 -9.1073e-18 0.185902
0 0.1 0.525 0.152538
0 0.1 -0.525 0.184909
0.522865 0.1 0.0710023 0.18272
0.522865 0.1 -0.075 0.188638
0.287374 0.1 0.45 0.145622
0.287374 0.1 -0.45 0.175912
0.219992 0.1 -0.4875 0.172396
0.219992 0.1 0.4875 0.140516
0.467897 0.1 0.2625 0.166909
0.467897 0.1 -0.2625 0.18734
0.350249 0.1 -0.4125 0.17925
0.350249 0.1 0.4125 0.150755
0 0.1 0.54299 0.151317
0 0.1 -0.54299 0.184692
0.522865 0.1 -0.15 0.190619
0.522865 0.1 0.15 0.178296
0.0363518 0.1 0.54299 0.151317
0.0363518 0.1 -0.54299 0.184692
0.150379 0.1 -0.525 0.178172
0.150379 0.1 0.525 0.145037
0.411108 0.1 0.375 0.156069
0.411108 0.1 -0.375 0.183381
0.075776 0.1 0.5625 0.149994
0.075776 0.1 -0.5625 0.184457
0.522865 0.1 0.225 0.17352
0.522865 0.1 -0.225 0.19184
0.574156 0.1 0.0375 0.188881
0.574157 0.1 -0.0375 0.19211
0.467897 0.1 -0.3375 0.187508
0.467897 0.1 0.3375 0.161612
0 0.1 0.58201 0.148611
0 0.1 -0.58201 0.184092
0.0363518 0.1 0.58201 0.148611
0.0363518 0.1 -0.58201 0.184092
0.574156 0.1 0.1125 0.184902
0.574156 0.1 -0.1125 0.19455
0.287374 0.1 0.525 0.140255
0.287374 0.1 -0.525 0.174857
0 0.1 0.6 0.147338
0 0.1 -0.6 0.183759
0.350249 0.1 0.4875 0.145368
0.350249 0.1 -0.4875 0.178489
0.522865 0.1 -0.3 0.192312
0.522865 0.1 0.3 0.168183
0.219992 0.1 0.5625 0.135241
0.219992 0.1 -0.5625 0.171088
0.574156 0.1 0.1875 0.180225
0.574157 0.1 -0.1875 0.196173
0.411108 0.1 0.45 0.150506
0.411108 0.1 -0.45 0.182701
0 0.1 0.61799 0.146066
0 0.1 -0.61799 0.183427
0.150379 0.1 0.6 0.139766
0.150379 0.1 -0.6 0.176837
0.0363518 0.1 -0.61799 0.183427
0.0363518 0.1 0.61799 0.146066
0.623413 0.1 0 0.19599
0.467897 0.1 0.4125 0.155888
0.467897 0.1 -0.4125 0.186962
0.623803 0.1 0.0710023 0.192501
0.623803 0.1 -0.075 0.198949
0.574156 0.1 0.2625 0.1749
0.574157 0.1 -0.2625 0.197001
0.623803 0.1 -0.15 0.201043
0.623803 0.1 0.15 0.18763
0.075776 0.1 0.6375 0.144688
0.075776 0.1 -0.6375 0.183068
0.522865 0.1 -0.375 0.192027
0.522865 0.1 0.375 0.162357
0 0.1 0.65701 0.143264
0 0.1 -0.65701 0.182593
0.0363518 0.1 0.65701 0.143264
0.0363518 0.1 -0.65701 0.182593
0.350249 0.1 0.5625 0.139688
0.350249 0.1 -0.5625 0.177186
0.623803 0.1 0.225 0.182339
0.623803 0.1 -0.225 0.202266
0.287374 0.1 0.6 0.134689
0.287374 0.1 -0.6 0.173325
0.574156 0.1 0.3375 0.169009
0.574157 0.1 -0.3375 0.197023
0.411108 0.1 0.525 0.14462
0.411108 0.1 -0.525 0.181449
0.67013 0.1 0.0375 0.19952
0.67013 0.1 -0.0375 0.203057
0.219993 0.1 0.6375 0.129839
0.219993 0.1 -0.6375 0.169373
0 0.1 0.675 0.141954
0 0.1 -0.675 0.182157
0.467897 0.1 0.4875 0.149811
0.467897 0.1 -0.4875 0.185791
0.67013 0.1 0.1125 0.195119
0.67013 0.1 -0.1125 0.20568
0.522865 0.1 -0.45 0.191027
0.522865 0.1 0.45 0.156115
0.150379 0.1 0.675 0.134339
0.150379 0.1 -0.675 0.175076
0.623803 0.1 0.3 0.176398
0.623803 0.1 -0.3 0.202625
0 0.1 -0.69299 0.181722
0 0.1 0.69299 0.140645
0.0363518 0.1 0.69299 0.140645
0.0363518 0.1 -0.69299 0.181722
0.67013 0.1 0.1875 0.189915
0.67013 0.1 -0.1875 0.207364
0.574156 0.1 0.4125 0.16264
0.574157 0.1 -0.4125 0.196247
0.714619 0.1 4.77049e-18 0.207188
0.075776 0.1 0.7125 0.139227
0.075776 0.1 -0.7125 0.181253
0.714971 0.1 0.0710023 0.203351
0.714971 0.1 -0.075 0.210403
0.67013 0.1 0.2625 0.183975
0.67013 0.1 -0.2625 0.20812
0.411108 0.1 0.6 0.138484
0.411108 0.1 -0.6 0.179652
0.350249 0.1 0.6375 0.133802
0.350249 0.1 -0.6375 0.175383
0.623803 0.1 0.375 0.169899
0.623803 0.1 -0.375 0.202127
0.714971 0.1 0.15 0.197943
0.714971 0.1 -0.15 0.212618
0.467897 0.1 0.5625 0.143442
0.467897 0.1 -0.5625 0.184033
0 0.1 0.73201 0.137776
0 0.1 -0.73201 0.180674
0.0363518 0.1 0.73201 0.137776
0.0363518 0.1 -0.73201 0.180674
0.287374 0.1 0.675 0.128973
0.287374 0.1 -0.675 0.17135
0.522865 0.1 0.525 0.149535
0.522865 0.1 -0.525 0.189375
0.219992 0.1 0.7125 0.124303
0.219992 0.1 -0.7125 0.167263
0.714971 0.1 -0.225 0.213828
0.714971 0.1 0.225 0.192046
0 0.1 0.75 0.136441
0 0.1 -0.75 0.180143
0.67013 0.1 -0.3375 0.207956
0.67013 0.1 0.3375 0.177393
0.574157 0.1 0.4875 0.155871
0.574157 0.1 -0.4875 0.194752
0.756813 0.1 0.0375 0.210958
0.756814 0.1 -0.0375 0.214832
0.150379 0.1 -0.75 0.172932
0.150379 0.1 0.75 0.128789
0.756813 0.1 0.1125 0.206088
0.756814 0.1 -0.1125 0.217648
0 0.1 0.76799 0.135105
0 0.1 -0.76799 0.179614
0.0363518 0.1 0.76799 0.135105
0.0363518 0.1 -0.76799 0.179614
0.623803 0.1 0.45 0.162932
0.623803 0.1 -0.45 0.200816
0.714971 0.1 0.3 0.18541
0.714971 0.1 -0.3 0.214043
0.756813 0.1 0.1875 0.200296
0.756813 0.1 -0.1875 0.219381
0.67013 0.1 -0.4125 0.206891
0.67013 0.1 0.4125 0.170263
0.411108 0.1 0.675 0.132174
0.411108 0.1 -0.675 0.177358
0.467897 0.1 0.6375 0.136861
0.467897 0.1 -0.6375 0.181732
0.075776 0.1 -0.7875 0.179041
0.075776 0.1 0.7875 0.13366
0.350249 0.1 -0.7125 0.173118
0.350249 0.1 0.7125 0.127782
0.791054 0.1 0.0690034 0.213378
0.522865 0.1 0.6 0.142696
0.522865 0.1 -0.6 0.18712
0.797314 0.1 -3.03577e-18 0.218935
0.797314 0.1 -0.075 0.222563
0.756814 0.1 0.2625 0.193665
0.756814 0.1 -0.2625 0.220047
0.287374 0.1 -0.75 0.168978
0.287374 0.1 0.75 0.123148
0.574156 0.1 0.5625 0.148792
0.574156 0.1 -0.5625 0.192583
0 0.1 0.80701 0.132196
0 0.1 -0.80701 0.17837
0.714971 0.1 -0.375 0.213282
0.714971 0.1 0.375 0.178139
0.0363518 0.1 0.80701 0.132196
0.0363518 0.1 -0.80701 0.17837
0.797314 0.1 0.15 0.208832
0.797314 0.1 -0.15 0.224914
0.623803 0.1 0.525 0.155593
0.623803 0.1 -0.525 0.198758
0.219992 0.1 -0.7875 0.164834
0.219992 0.1 0.7875 0.11867
0 0.1 0.825 0.130849
0 0.1 -0.825 0.177754
0.797314 0.1 0.225 0.202266
0.797314 0.1 -0.225 0.226113
0.756813 0.1 -0.3375 0.219654
0.756814 0.1 0.3375 0.186296
0.67013 0.1 0.4875 0.16269
0.67013 0.1 -0.4875 0.204996
0.835106 0.1 0.0375 0.222914
0.835106 0.1 -0.0375 0.22717
0.150379 0.1 -0.825 0.170447
0.150379 0.1 0.825 0.123167
0.835106 0.1 0.1125 0.217522
0.835106 0.1 -0.1125 0.230224
0 0.1 -0.84299 0.177139
0 0.1 0.84299 0.129502
0.0363518 0.1 -0.84299 0.177139
0.0363518 0.1 0.84299 0.129502
0.714971 0.1 -0.45 0.211593
0.714971 0.1 0.45 0.170346
0.797314 0.1 0.3 0.194863
0.797314 0.1 -0.3 0.226179
0.467897 0.1 0.7125 0.130138
0.467897 0.1 -0.7125 0.178944
0.522865 0.1 0.675 0.135682
0.522865 0.1 -0.675 0.184322
0.411108 0.1 -0.75 0.174615
0.411108 0.1 0.75 0.125762
0.835106 0.1 -0.1875 0.232022
0.835107 0.1 0.1875 0.211085
0.574156 0.1 0.6375 0.141496
0.574156 0.1 -0.6375 0.189809
0.350249 0.1 -0.7875 0.170443
0.350249 0.1 0.7875 0.121691
0.756814 0.1 0.4125 0.178321
0.756814 0.1 -0.4125 0.218243
0.623803 0.1 0.6 0.147983
0.623803 0.1 -0.6 0.196017
0.075776 0.1 0.8625 0.128044
0.075776 0.1 -0.8625 0.176474
0.871687 0.1 -0.00399773 0.231571
0.287374 0.1 -0.825 0.16626
0.287374 0.1 0.825 0.117266
0.871687 0.1 0.075 0.226208
0.871687 0.1 -0.075 0.235074
0.67013 0.1 0.5625 0.154786
0.67013 0.1 -0.5625 0.202337
0.835106 0.1 0.2625 0.203702
0.835106 0.1 -0.2625 0.23262
0.797314 0.1 0.375 0.186747
0.797314 0.1 -0.375 0.225134
0 0.1 -0.88201 0.175723
0 0.1 0.88201 0.126578
0.0363518 0.1 0.88201 0.126578
0.0363518 0.1 -0.88201 0.175723
0.871687 0.1 0.15 0.219985
0.871687 0.1 -0.15 0.237558
0.714971 0.1 0.525 0.162144
0.714971 0.1 -0.525 0.209048
0.219992 0.1 0.8625 0.113
0.219993 0.1 -0.8625 0.162113
0 0.1 0.9 0.125229
0 0.1 -0.9 0.175032
0.756813 0.1 0.4875 0.169855
0.756814 0.1 -0.4875 0.215871
0.871687 0.1 0.225 0.2127
0.871687 0.1 -0.225 0.238734
0.835106 0.1 0.3375 0.195497
0.835106 0.1 -0.3375 0.232018
0.90582 0.1 -0.0375 0.239642
0.905821 0.1 0.0375 0.235
0.150379 0.1 0.9 0.117524
0.150379 0.1 -0.9 0.167656
0.90582 0.1 0.1125 0.229074
0.90582 0.1 -0.1125 0.242917
0.522865 0.1 -0.75 0.181042
0.522865 0.1 0.75 0.128569
0.574156 0.1 0.7125 0.134065
0.574156 0.1 -0.7125 0.186498
0.797314 0.1 0.45 0.178057
0.797314 0.1 -0.45 0.223029
0.467897 0.1 -0.7875 0.175723
0.467897 0.1 0.7875 0.123353
0 0.1 0.91799 0.12388
0 0.1 -0.91799 0.174343
0.0363518 0.1 0.91799 0.12388
0.0363518 0.1 -0.91799 0.174343
0.623803 0.1 0.675 0.140198
0.623803 0.1 -0.675 0.192673
0.411108 0.1 -0.825 0.171478
0.411108 0.1 0.825 0.119311
0.871687 0.1 0.3 0.204476
0.871687 0.1 -0.3 0.238643
0.67013 0.1 0.6375 0.146656
0.67013 0.1 -0.6375 0.198997
0.90582 0.1 0.1875 0.221956
0.905821 0.1 -0.1875 0.244722
0.350249 0.1 0.8625 0.115577
0.350249 0.1 -0.8625 0.167409
0.835106 0.1 0.4125 0.186612
0.835106 0.1 -0.4125 0.230252
0.714971 0.1 0.6 0.153655
0.714971 0.1 -0.6 0.205736
0.93886 0.1 -0.00399773 0.243823
0.075776 0.1 0.9375 0.12242
0.075776 0.1 -0.9375 0.173597
0.93886 0.1 0.075 0.237912
0.93886 0.1 -0.075 0.247642
0.756813 0.1 0.5625 0.161022
0.756814 0.1 -0.5625 0.212636
0.90582 0.1 0.2625 0.213773
0.905821 0.1 -0.2625 0.245226
0.287374 0.1 0.9 0.111378
0.287374 0.1 -0.9 0.163235
0.871687 0.1 0.375 0.195454
0.871687 0.1 -0.375 0.237283
0.93886 0.1 0.15 0.231051
0.93886 0.1 -0.15 0.250295
0.797314 0.1 0.525 0.168924
0.797314 0.1 -0.525 0.219948
0 0.1 0.95701 0.120963
0 0.1 -0.95701 0.172776
0.0363518 0.1 0.95701 0.120963
0.0363518 0.1 -0.95701 0.172776
0.219992 0.1 0.9375 0.107341
0.219992 0.1 -0.9375 0.159117
0.93886 0.1 0.225 0.223009
0.93886 0.1 -0.225 0.251476
0.90582 0.1 0.3375 0.20467
0.905821 0.1 -0.3375 0.244369
0.835107 0.1 0.4875 0.177205
0.835107 0.1 -0.4875 0.227391
0.969689 0.1 0.0375 0.246917
0.969689 0.1 -0.0375 0.252041
0.574156 0.1 0.7875 0.12658
0.574156 0.1 -0.7875 0.182719
0 0.1 0.975 0.119623
0 0.1 -0.975 0.172021
0.623803 0.1 0.75 0.13233
0.623803 0.1 -0.75 0.188804
0.96969 0.1 0.1125 0.240378
0.96969 0.1 -0.1125 0.255664
0.522865 0.1 -0.825 0.177345
0.522865 0.1 0.825 0.121433
0.67013 0.1 0.7125 0.138404
0.67013 0.1 -0.7125 0.195065
0.871687 0.1 0.45 0.185797
0.871687 0.1 -0.45 0.234708
0.467897 0.1 0.8625 0.116568
0.467897 0.1 -0.8625 0.172129
0.714971 0.1 -0.675 0.201753
0.714971 0.1 0.675 0.144995
0.93886 0.1 0.3 0.213934
0.93886 0.1 -0.3 0.251266
0.150379 0.1 0.975 0.111903
0.150379 0.1 -0.975 0.164591
0.969689 0.1 -0.1875 0.257567
0.969689 0.1 0.1875 0.232533
0.411108 0.1 0.9 0.112877
0.411108 0.1 -0.9 0.168004
0.756813 0.1 0.6375 0.151965
0.756813 0.1 -0.6375 0.208642
0.990306 0.1 3.46945e-18 0.253137
0 0.1 0.99299 0.118283
0 0.1 -0.99299 0.171267
0.990306 0.1 0.075 0.246877
0.990306 0.1 -0.075 0.257358
0.0363518 0.1 0.99299 0.118283
0.0363518 0.1 -0.99299 0.171267
0.905821 0.1 0.4125 0.1948
0.905821 0.1 -0.4125 0.242163
0.797314 0.1 0.6 0.159492
0.797314 0.1 -0.6 0.216005
0.350249 0.1 0.9375 0.109487
0.350249 0.1 -0.9375 0.164073
0.990306 0.1 0.15 0.239466
0.990306 0.1 -0.15 0.260142
0.969689 0.1 -0.2625 0.258078
0.969689 0.1 0.2625 0.223532
0.835106 0.1 0.5625 0.167409
0.835106 0.1 -0.5625 0.223553
0.93886 0.1 0.375 0.203987
0.93886 0.1 -0.375 0.249615
0.075776 0.1 1.0125 0.116832
0.075776 0.1 -1.0125 0.170452
0.990306 0.1 0.225 0.230774
0.990306 0.1 -0.225 0.261313
0.287374 0.1 0.975 0.105527
0.287374 0.1 -0.975 0.159942
0.871687 0.1 0.525 0.175669
0.871687 0.1 -0.525 0.231027
1.02149 0.1 -0.0369628 0.261741
1.02149 0.1 0.0369628 0.25711
0.969689 0.1 -0.3375 0.25708
0.96969 0.1 0.3375 0.213539
1.02149 0.1 0.110888 0.250098
1.02149 0.1 -0.110888 0.266433
0.90582 0.1 0.4875 0.184365
0.905821 0.1 -0.4875 0.238708
0 0.1 1.03201 0.115398
0 0.1 -1.03201 0.169573
0.0363518 0.1 1.03201 0.115398
0.0363518 0.1 -1.03201 0.169573
0.67013 0.1 0.7875 0.130128
0.67013 0.1 -0.7875 0.190634
0.623803 0.1 -0.825 0.184491
0.623803 0.1 0.825 0.124465
0.990306 0.1 0.3 0.220967
0.990306 0.1 -0.3 0.261016
0.219992 0.1 -1.0125 0.155883
0.219992 0.1 1.0125 0.101728
0.574156 0.1 -0.8625 0.178549
0.574157 0.1 0.8625 0.11912
0.714971 0.1 0.75 0.136271
0.714971 0.1 -0.75 0.197202
1.02149 0.1 0.184814 0.241655
1.02149 0.1 -0.184814 0.268265
0.756814 0.1 0.7125 0.142794
0.756813 0.1 -0.7125 0.204
0.522865 0.1 0.9 0.114346
0.522865 0.1 -0.9 0.173299
0.93886 0.1 0.45 0.193353
0.93886 0.1 -0.45 0.24658
1.04168 0.1 0 0.264203
1.04168 0.1 0.0729162 0.25787
1.04168 0.1 -0.0729162 0.268986
0.797314 0.1 0.675 0.149904
0.797314 0.1 -0.675 0.211319
0.467897 0.1 0.9375 0.109848
0.467897 0.1 -0.9375 0.168218
0 0.1 1.05 0.114079
0 0.1 -1.05 0.168764
0.835106 0.1 0.6375 0.157395
0.835106 0.1 -0.6375 0.218868
1.04168 0.1 0.145832 0.25005
1.04168 0.1 -0.145832 0.271937
1.02149 0.1 0.25874 0.231951
1.02149 0.1 -0.25874 0.268718
0.969689 0.1 0.4125 0.202738
0.969689 0.1 -0.4125 0.254543
0.411108 0.1 0.975 0.106511
0.411108 0.1 -0.975 0.164246
0.871687 0.1 0.6 0.165225
0.871687 0.1 -0.6 0.226385
1.0579 0.1 -0.0360525 0.270801
1.0579 0.1 0.0360525 0.264882
0.990306 0.1 0.375 0.210226
0.990306 0.1 -0.375 0.259126
0.150379 0.1 1.05 0.106343
0.150379 0.1 -1.05 0.161293
1.0579 0.1 -0.108157 0.274559
1.0579 0.1 0.108157 0.257737
1.04168 0.1 0.218749 0.240889
1.04168 0.1 -0.218749 0.273136
0.90582 0.1 0.5625 0.173518
0.905821 0.1 -0.5625 0.234157
0 0.1 -1.06799 0.167957
0 0.1 1.06799 0.11276
0.0363518 0.1 -1.06799 0.167957
0.0363518 0.1 1.06799 0.11276
0.350249 0.1 1.0125 0.103467
0.350249 0.1 -1.0125 0.160481
1.0579 0.1 -0.180262 0.276569
1.0579 0.1 0.180262 0.249177
1.02149 0.1 0.332665 0.221164
1.02149 0.1 -0.332665 0.267578
0.93886 0.1 0.525 0.182218
0.93886 0.1 -0.525 0.242295
1.08012 0.1 1.70581e-17 0.272522
1.04168 0.1 0.291665 0.23056
1.04168 0.1 -0.291665 0.27287
1.08012 0.1 0.0709941 0.266008
1.08012 0.1 -0.074001 0.277934
0.969689 0.1 -0.4875 0.250612
0.96969 0.1 0.4875 0.191333
1.0579 0.1 0.252367 0.239371
1.0579 0.1 -0.252367 0.27709
0.990306 0.1 -0.45 0.255688
0.990306 0.1 0.45 0.198756
0.287374 0.1 -1.05 0.156422
0.287374 0.1 1.05 0.0997535
1.08012 0.1 0.141988 0.258017
1.08012 0.1 -0.141988 0.280678
0.075776 0.1 1.0875 0.111332
0.075776 0.1 -1.0875 0.167083
0.714971 0.1 0.825 0.127587
0.714971 0.1 -0.825 0.192182
0.756813 0.1 0.7875 0.133629
0.756813 0.1 -0.7875 0.198822
0.67013 0.1 0.8625 0.121916
0.67013 0.1 -0.8625 0.185789
0.797314 0.1 -0.75 0.206015
0.797314 0.1 0.75 0.140285
0.623803 0.1 0.9 0.116683
0.623803 0.1 -0.9 0.179818
0.835106 0.1 0.7125 0.147313
0.835107 0.1 -0.7125 0.213467
0.574156 0.1 0.9375 0.111763
0.574156 0.1 -0.9375 0.174063
1.02149 0.1 -0.406591 0.264692
1.02149 0.1 0.406591 0.209499
1.08012 0.1 -0.212982 0.282018
1.08012 0.1 0.212982 0.248693
1.10076 0.1 -0.0349809 0.280099
1.10076 0.1 0.0349809 0.274224
0.871687 0.1 0.675 0.154636
0.871687 0.1 -0.675 0.220931
1.04168 0.1 0.364581 0.219252
1.04168 0.1 -0.364581 0.270942
1.10076 0.1 0.104943 0.266804
1.10076 0.1 -0.104943 0.28447
0.522865 0.1 0.975 0.107368
0.522865 0.1 -0.975 0.168968
1.0579 0.1 0.324472 0.228493
1.0579 0.1 -0.324472 0.276111
0 0.1 -1.10701 0.166156
0 0.1 1.10701 0.109927
0.0363518 0.1 1.10701 0.109927
0.0363518 0.1 -1.10701 0.166156
0.90582 0.1 0.6375 0.162428
0.905821 0.1 -0.6375 0.228684
0.219992 0.1 1.0875 0.0961931
0.219992 0.1 -1.0875 0.152443
0.93886 0.1 0.6 0.170771
0.93886 0.1 -0.6 0.236936
1.10076 0.1 0.174905 0.257961
1.10076 0.1 -0.174905 0.286704
0.467897 0.1 1.0125 0.103239
0.467897 0.1 -1.0125 0.16405
1.08012 0.1 0.283976 0.23821
1.08012 0.1 -0.283976 0.281871
1.11928 0.1 -0.00290737 0.281065
1.11711 0.1 -0.0710826 0.285743
0.990306 0.1 0.525 0.186762
0.990306 0.1 -0.525 0.250866
0.969689 0.1 0.5625 0.179503
0.96969 0.1 -0.5625 0.245424
1.11928 0.1 0.0690357 0.274298
0 0.1 1.125 0.108635
0 0.1 -1.125 0.165304
1.11807 0.1 -0.138193 0.28911
0.411108 0.1 -1.05 0.160258
0.411108 0.1 1.05 0.100259
1.10076 0.1 -0.244866 0.287329
1.10076 0.1 0.244866 0.247873
1.11928 0.1 0.138072 0.26604
1.02149 0.1 0.480517 0.197174
1.02149 0.1 -0.480517 0.26022
1.0579 0.1 -0.396577 0.273377
1.0579 0.1 0.396577 0.21674
1.04168 0.1 0.437497 0.207172
1.04168 0.1 -0.437497 0.267332
0.150379 0.1 1.125 0.10088
0.150379 0.1 -1.125 0.1578
1.08012 0.1 0.354971 0.226749
1.08012 0.1 -0.354971 0.28009
1.11807 0.1 -0.207288 0.290615
1.11928 0.1 0.207107 0.256446
0.350249 0.1 1.0875 0.0975561
0.350249 0.1 -1.0875 0.156682
0 0.1 1.14299 0.107343
0 0.1 -1.14299 0.164453
0.0363518 0.1 1.14299 0.107343
0.0363518 0.1 -1.14299 0.164453
1.14316 0.1 -0.0339211 0.289154
1.14316 0.1 0.0339211 0.283514
1.10076 0.1 0.314829 0.236703
1.10076 0.1 -0.314829 0.286538
0.797314 0.1 0.825 0.130751
0.797314 0.1 -0.825 0.200222
0.756814 0.1 -0.8625 0.193224
0.756814 0.1 0.8625 0.124573
1.14316 0.1 -0.101763 0.294251
1.14316 0.1 0.101763 0.275815
0.835106 0.1 0.7875 0.13728
0.835107 0.1 -0.7875 0.207497
0.714971 0.1 0.9 0.119032
0.714971 0.1 -0.9 0.186794
0.871687 0.1 0.75 0.144046
0.871687 0.1 -0.75 0.214815
1.11807 0.1 -0.276385 0.29059
0.67013 0.1 0.9375 0.113846
0.67013 0.1 -0.9375 0.180621
0.905821 0.1 0.7125 0.151285
0.905821 0.1 -0.7125 0.222447
1.11928 0.1 0.276143 0.245684
1.14316 0.1 -0.169605 0.296778
1.14316 0.1 0.169605 0.266689
0.93886 0.1 0.675 0.159219
0.93886 0.1 -0.675 0.230686
1.15704 0.1 0 0.289526
1.0579 0.1 0.468682 0.204321
1.0579 0.1 -0.468682 0.269059
0.623803 0.1 0.975 0.109054
0.623803 0.1 -0.975 0.174862
0.990306 0.1 0.6 0.174466
0.990306 0.1 -0.6 0.24488
1.15704 0.1 -0.0671479 0.295027
1.15704 0.1 0.0671479 0.282487
1.04168 0.1 0.510414 0.194547
1.04168 0.1 -0.510414 0.262201
0.969689 0.1 0.6375 0.167503
0.96969 0.1 -0.6375 0.239214
1.08012 0.1 0.425965 0.214511
1.08012 0.1 -0.425965 0.276606
0.287374 0.1 -1.125 0.152715
0.287374 0.1 1.125 0.0940888
1.02149 0.1 0.554443 0.184429
1.02149 0.1 -0.554443 0.254378
0.574156 0.1 -1.0125 0.169326
0.574156 0.1 1.0125 0.104561
1.15704 0.1 -0.134296 0.298722
1.15704 0.1 0.134296 0.273953
0.075776 0.1 1.1625 0.105943
0.075776 0.1 -1.1625 0.163531
1.10076 0.1 0.384791 0.224649
1.10076 0.1 -0.384791 0.283903
1.14316 0.1 -0.237448 0.297541
1.14316 0.1 0.237448 0.256311
1.11807 0.1 -0.345481 0.288933
1.11928 0.1 0.345179 0.233935
0.522865 0.1 1.05 0.100554
0.522865 0.1 -1.05 0.164416
1.15704 0.1 -0.201444 0.300437
1.15704 0.1 0.201444 0.264082
1.1744 0.1 -0.0331401 0.296553
1.1744 0.1 0.0331401 0.289715
1.1744 0.1 -0.0994202 0.301412
1.1744 0.1 0.0994202 0.282234
0 0.1 1.18201 0.104579
0 0.1 -1.18201 0.162567
0.0363518 0.1 1.18201 0.104579
0.0363518 0.1 -1.18201 0.162567
0.219992 0.1 1.1625 0.0907663
0.219993 0.1 -1.1625 0.148832
1.14316 0.1 -0.30529 0.296879
1.14316 0.1 0.30529 0.244845
0.467897 0.1 1.0875 0.0967952
0.467897 0.1 -1.0875 0.159682
1.1744 0.1 -0.1657 0.304204
1.1744 0.1 0.1657 0.27287
1.15704 0.1 -0.268592 0.300572
1.15704 0.1 0.268592 0.253042
1.0579 0.1 0.540787 0.191464
1.0579 0.1 -0.540787 0.263258
1.08012 0.1 0.496959 0.201714
1.08012 0.1 -0.496959 0.271556
1.10076 0.1 0.454752 0.211914
1.10076 0.1 -0.454752 0.279642
1.11807 0.1 -0.414577 0.285522
1.11928 0.1 0.414214 0.221399
1.04168 0.1 0.58333 0.181595
1.04168 0.1 -0.58333 0.255814
1.19529 0.1 0.0650961 0.289969
1.1744 0.1 0.231981 0.26226
1.1744 0.1 -0.231981 0.30507
0.411108 0.1 1.125 0.0941602
0.411108 0.1 -1.125 0.156091
1.19808 0.1 3.5851e-17 0.298849
0.990306 0.1 0.675 0.162088
0.990306 0.1 -0.675 0.237942
1.02149 0.1 0.628368 0.171465
1.02149 0.1 -0.628368 0.247474
1.19808 0.1 -0.0650961 0.304662
0 0.1 1.2 0.103324
0 0.1 -1.2 0.16168
0.871687 0.1 -0.825 0.208192
0.871687 0.1 0.825 0.133582
0.905821 0.1 -0.7875 0.215617
0.90582 0.1 0.7875 0.140212
0.835106 0.1 0.8625 0.127425
0.835106 0.1 -0.8625 0.201095
0.93886 0.1 0.75 0.147722
0.93886 0.1 -0.75 0.223727
0.797314 0.1 0.9 0.121398
0.797314 0.1 -0.9 0.194056
1.14316 0.1 -0.373132 0.294364
1.14316 0.1 0.373132 0.232482
0.969689 0.1 0.7125 0.155547
0.969689 0.1 -0.7125 0.232153
1.15704 0.1 -0.33574 0.299083
1.15704 0.1 0.33574 0.241011
0.756813 0.1 0.9375 0.11572
0.756814 0.1 -0.9375 0.187309
1.19808 0.1 0.130192 0.282299
1.19808 0.1 -0.130192 0.308711
0.714971 0.1 0.975 0.110687
0.714971 0.1 -0.975 0.181134
0.150379 0.1 1.2 0.0955446
0.150379 0.1 -1.2 0.154148
1.20938 0.1 -0.0322656 0.304494
1.20938 0.1 0.0322656 0.297843
1.19808 0.1 0.178844 0.272471
1.1744 0.1 0.298261 0.250561
1.1744 0.1 -0.298261 0.304633
1.20938 0.1 -0.0967968 0.309627
1.20938 0.1 0.0967968 0.289623
1.19808 0.1 -0.195288 0.310721
0.350249 0.1 1.1625 0.091785
0.350249 0.1 -1.1625 0.152721
0.67013 0.1 1.0125 0.105986
0.67013 0.1 -1.0125 0.175214
0 0.1 1.21799 0.102069
0 0.1 -1.21799 0.160793
1.11807 0.1 -0.483674 0.280491
0.0363518 0.1 1.21799 0.102069
0.0363518 0.1 -1.21799 0.160793
1.11928 0.1 0.48325 0.208289
1.10076 0.1 -0.524714 0.273826
1.10076 0.1 0.524714 0.198724
1.20938 0.1 -0.161328 0.312774
1.20938 0.1 0.161328 0.279989
1.08012 0.1 0.567953 0.188573
1.08012 0.1 -0.567953 0.265171
0.623803 0.1 1.05 0.101643
0.623803 0.1 -1.05 0.169698
1.0579 0.1 -0.612892 0.256352
1.0579 0.1 0.612892 0.178374
1.15704 0.1 -0.402888 0.295795
1.15704 0.1 0.402888 0.228186
1.14316 0.1 0.440974 0.219428
1.14316 0.1 -0.440974 0.290167
1.19808 0.1 -0.260384 0.311077
1.19808 0.1 0.260384 0.261132
1.2267 0.1 3.64292e-18 0.304942
1.2267 0.1 -0.0636649 0.310977
1.2267 0.1 0.0636649 0.297359
1.1744 0.1 -0.364541 0.302267
1.1744 0.1 0.364541 0.237969
0.574156 0.1 1.0875 0.0975795
0.574156 0.1 -1.0875 0.16441
1.20938 0.1 -0.225859 0.313809
1.20938 0.1 0.225859 0.269117
1.04168 0.1 0.656246 0.168518
1.04168 0.1 -0.656246 0.248416
1.22587 0.1 0.12733 0.287849
1.2267 0.1 -0.12733 0.315286
0.287374 0.1 -1.2 0.148861
0.287374 0.1 1.2 0.0885617
1.02149 0.1 0.702294 0.15847
1.02149 0.1 -0.702294 0.239674
0.075776 0.1 1.2375 0.100711
0.075776 0.1 -1.2375 0.159834
0.522865 0.1 1.125 0.0939478
0.522865 0.1 -1.125 0.159701
1.2267 0.1 0.190397 0.27781
1.2267 0.1 -0.190994 0.317535
1.19808 0.1 0.32548 0.248803
1.19808 0.1 -0.32548 0.309836
0.990306 0.1 0.75 0.149784
0.990306 0.1 -0.75 0.23026
1.24274 0.1 -0.0314313 0.311917
1.24274 0.1 0.0314313 0.304982
1.20938 0.1 -0.29039 0.313602
1.20938 0.1 0.29039 0.25716
1.24274 0.1 -0.0942942 0.317317
1.24274 0.1 0.0942942 0.296481
1.11807 0.1 -0.552769 0.274056
1.11928 0.1 0.552285 0.194822
1.15704 0.1 -0.470036 0.290813
1.15704 0.1 0.470036 0.214781
0.969689 0.1 0.7875 0.143751
0.96969 0.1 -0.7875 0.224467
0.93886 0.1 -0.825 0.216243
0.93886 0.1 0.825 0.13641
0.905821 0.1 0.8625 0.129348
0.905821 0.1 -0.8625 0.208352
1.1744 0.1 -0.430821 0.298212
1.1744 0.1 0.430821 0.224683
1.10076 0.1 0.594676 0.185285
1.10076 0.1 -0.594676 0.266824
1.14316 0.1 -0.508816 0.284334
1.14316 0.1 0.508816 0.205904
1.24274 0.1 0.157157 0.286579
1.24274 0.1 -0.157157 0.320844
1.2267 0.1 0.254158 0.266329
1.2267 0.1 -0.254659 0.318065
0.871687 0.1 -0.9 0.201205
0.871687 0.1 0.9 0.123374
0.467897 0.1 1.1625 0.0905464
0.467897 0.1 -1.1625 0.155166
1.08012 0.1 0.638947 0.175295
1.08012 0.1 -0.638947 0.257709
1.25511 0.1 1.27213e-17 0.311005
0.835106 0.1 0.9375 0.1178
0.835106 0.1 -0.9375 0.194373
1.25511 0.1 -0.0622446 0.31726
1.25511 0.1 0.0622446 0.303198
0.219992 0.1 1.2375 0.0854737
0.219992 0.1 -1.2375 0.145087
0 0.1 -1.25701 0.15884
0 0.1 1.25701 0.0993906
0.0363518 0.1 -1.25701 0.15884
0.0363518 0.1 1.25701 0.0993906
0.797314 0.1 0.975 0.11231
0.797314 0.1 -0.975 0.18763
1.19808 0.1 0.389737 0.235682
1.19808 0.1 -0.390576 0.306767
1.0579 0.1 -0.684997 0.24848
1.0579 0.1 0.684997 0.16526
1.20938 0.1 -0.354921 0.311459
1.20938 0.1 0.354921 0.244311
1.25511 0.1 0.124489 0.293911
1.25511 0.1 -0.124489 0.321826
1.24274 0.1 -0.220019 0.322113
1.24274 0.1 0.220019 0.275447
0.756814 0.1 1.0125 0.107149
0.756814 0.1 -1.0125 0.181181
1.25305 0.1 0.186734 0.280839
1.2267 0.1 0.317097 0.253794
1.2267 0.1 -0.318324 0.317016
0.411108 0.1 1.2 0.0882488
0.411108 0.1 -1.2 0.151791
1.25511 0.1 -0.186734 0.324328
0.714971 0.1 1.05 0.102625
0.714971 0.1 -1.05 0.175286
1.04168 0.1 0.729162 0.155497
1.04168 0.1 -0.729162 0.240217
1.24274 0.1 -0.282882 0.322118
1.24274 0.1 0.282882 0.263234
0 0.1 1.275 0.0981762
0 0.1 -1.275 0.157926
1.1744 0.1 -0.497102 0.292409
1.1744 0.1 0.497102 0.210924
1.15704 0.1 -0.537184 0.284338
1.15704 0.1 0.537184 0.20101
1.2756 0.1 -0.03061 0.319135
1.2756 0.1 0.03061 0.311895
0.67013 0.1 1.0875 0.0984076
0.67013 0.1 -1.0875 0.169639
1.25305 0.1 0.248978 0.271163
1.2756 0.1 0.09183 0.303108
1.2756 0.1 -0.09183 0.324808
1.11807 0.1 -0.621866 0.266473
1.25511 0.1 -0.248978 0.325044
1.20938 0.1 0.419453 0.230771
1.20938 0.1 -0.419453 0.307589
1.11928 0.1 0.621322 0.1812
1.14316 0.1 -0.576659 0.277228
1.14316 0.1 0.576659 0.192117
1.19808 0.1 0.454694 0.221977
1.19808 0.1 -0.455673 0.301935
1.02149 0.1 0.776219 0.145562
1.02149 0.1 -0.776219 0.231236
0.150379 0.1 1.275 0.0903629
0.150379 0.1 -1.275 0.150372
1.2267 0.1 0.381603 0.240469
1.2756 0.1 -0.15305 0.328714
1.2756 0.1 0.15305 0.292935
1.2267 0.1 -0.381989 0.314134
1.10076 0.1 0.664638 0.171795
1.10076 0.1 -0.664638 0.258765
0.350249 0.1 1.2375 0.0861819
0.350249 0.1 -1.2375 0.148636
0.623803 0.1 1.125 0.0944964
0.623803 0.1 -1.125 0.164394
0.990306 0.1 0.825 0.137709
0.990306 0.1 -0.825 0.222045
1.24274 0.1 -0.345745 0.320246
1.24274 0.1 0.345745 0.250132
1.2906 0.1 0 0.318534
1.25305 0.1 0.311223 0.258423
1.2906 0.1 -0.0604698 0.325136
1.2906 0.1 0.0604698 0.310377
1.08012 0.1 -0.709941 0.249379
1.08012 0.1 0.709941 0.162087
0 0.1 1.29299 0.0969616
0 0.1 -1.29299 0.157013
1.25511 0.1 -0.311223 0.324186
1.2756 0.1 0.214269 0.281538
1.2756 0.1 -0.214269 0.330359
0.0363518 0.1 -1.29299 0.157013
0.0363518 0.1 1.29299 0.0969616
1.2906 0.1 -0.12094 0.330105
1.2906 0.1 0.12094 0.300756
0.574156 0.1 1.1625 0.0908494
0.574157 0.1 -1.1625 0.159372
0.969689 0.1 -0.8625 0.216331
0.969689 0.1 0.8625 0.132253
0.93886 0.1 -0.9 0.208402
0.93886 0.1 0.9 0.125397
1.0579 0.1 -0.757102 0.239918
1.0579 0.1 0.757102 0.152321
1.1744 0.1 -0.563382 0.285285
1.1744 0.1 0.563382 0.196902
1.20938 0.1 0.483984 0.216754
1.20938 0.1 -0.483984 0.301885
1.2906 0.1 -0.181409 0.33305
1.2906 0.1 0.181409 0.289835
0.90582 0.1 0.9375 0.118883
0.90582 0.1 -0.9375 0.200816
1.2267 0.1 0.445203 0.226561
1.2756 0.1 0.275489 0.269067
1.2756 0.1 -0.275489 0.330553
1.2267 0.1 -0.445653 0.309439
1.15704 0.1 -0.604332 0.276641
1.15704 0.1 0.604332 0.187076
1.19808 0.1 0.51965 0.207904
1.19808 0.1 -0.520769 0.295504
1.30646 0.1 0.0298385 0.318078
1.30646 0.1 -0.0298385 0.325615
0.287374 0.1 -1.275 0.144893
0.287374 0.1 1.275 0.0831963
1.25305 0.1 0.373467 0.244899
0.871687 0.1 0.975 0.113522
0.871687 0.1 -0.975 0.193985
1.24274 0.1 0.408607 0.236346
1.24274 0.1 -0.408607 0.316591
0.522865 0.1 1.2 0.0875909
0.522865 0.1 -1.2 0.154876
1.25511 0.1 -0.373467 0.321506
1.30646 0.1 -0.0895157 0.331575