# UMean  POINT_DATA 63140
# x  y  z  UMean_x  UMean_y  UMean_z
0 0.1 0 0.819152 0 0.573576
0 0.1 -0.0179898 0.819152 0 0.573576
0 0.1 0.0179898 0.819152 0 0.573576
0.0363518 0.1 -0.0179898 0.822041 0.00694852 0.574878
0.0363518 0.1 0.0179898 0.822039 0.00693203 0.575239
0 0.1 -0.0570102 0.819152 0 0.573576
0 0.1 0.0570102 0.819152 0 0.573576
0.0363518 0.1 0.0570102 0.822039 0.00693203 0.575239
0.0363518 0.1 -0.0570102 0.822041 0.00694852 0.574878
0 0.1 0.075 0.819152 0 0.573576
0 0.1 -0.075 0.819152 0 0.573576
0.075776 0.1 -0.0375 0.825215 0.014599 0.576282
0.075776 0.1 0.0375 0.825214 0.0145655 0.577034
0 0.1 0.0929898 0.819152 0 0.573576
0 0.1 -0.0929898 0.819152 0 0.573576
0.0363518 0.1 0.0929898 0.822024 0.00690656 0.575589
0.0363518 0.1 -0.0929898 0.822018 0.00696032 0.574504
0 0.1 0.13201 0.819152 0 0.573576
0 0.1 -0.13201 0.819152 0 0.573576
0.075776 0.1 0.1125 0.825183 0.0145138 0.577764
0.075776 0.1 -0.1125 0.825165 0.0146233 0.575502
0.0363518 0.1 0.13201 0.822024 0.00690656 0.575589
0.0363518 0.1 -0.13201 0.822018 0.00696032 0.574504
0 0.1 0.15 0.819152 0 0.573576
0 0.1 -0.15 0.819152 0 0.573576
0.150379 0.1 -8.67362e-19 0.826702 0.0138101 0.578198
0.150379 0.1 0.0710023 0.826795 0.0138103 0.579339
0 0.1 0.16799 0.819152 0 0.573576
0 0.1 -0.16799 0.819152 0 0.573576
0.150379 0.1 -0.075 0.826597 0.0138062 0.576851
0.0363518 0.1 0.16799 0.822006 0.00686999 0.57592
0.0363518 0.1 -0.16799 0.821984 0.00696272 0.574108
0.075776 0.1 0.1875 0.825147 0.0144393 0.578453
0.075776 0.1 -0.1875 0.825093 0.0146284 0.574677
0 0.1 0.20701 0.819152 0 0.573576
0 0.1 -0.20701 0.819152 0 0.573576
0.0363518 0.1 0.20701 0.822006 0.00686999 0.57592
0.0363518 0.1 -0.20701 0.821984 0.00696272 0.574108
0.150379 0.1 -0.15 0.826538 0.0137825 0.575493
0.150379 0.1 0.15 0.827042 0.013751 0.580775
0.219992 0.1 -0.0375 0.828003 0.0130668 0.578713
0.219992 0.1 0.0375 0.828246 0.0130868 0.580622
0 0.1 0.225 0.819152 0 0.573576
0 0.1 -0.225 0.819152 0 0.573576
0 0.1 0.24299 0.819152 0 0.573576
0 0.1 -0.24299 0.819152 0 0.573576
0.0363518 0.1 0.24299 0.82198 0.00682515 0.57622
0.0363518 0.1 -0.24299 0.82194 0.00693877 0.573717
0.219992 0.1 0.1125 0.828601 0.0130812 0.582449
0.219993 0.1 -0.1125 0.827879 0.0130164 0.576818
0.150379 0.1 -0.225 0.826549 0.013733 0.574139
0.150379 0.1 0.225 0.827295 0.0136819 0.581963
0.075776 0.1 -0.2625 0.825003 0.0145788 0.573861
0.075776 0.1 0.2625 0.825093 0.0143479 0.57908
0 0.1 -0.28201 0.819152 0 0.573576
0 0.1 0.28201 0.819152 0 0.573576
0.0363518 0.1 -0.28201 0.82194 0.00693877 0.573717
0.0363518 0.1 0.28201 0.82198 0.00682515 0.57622
0.287374 0.1 0 0.825091 0.0126715 0.580647
0.219992 0.1 -0.1875 0.827892 0.0129458 0.574939
0.219993 0.1 0.1875 0.829069 0.0130436 0.584191
0.287374 0.1 0.0710023 0.825419 0.0126947 0.58278
0.287374 0.1 -0.075 0.824929 0.0126336 0.578214
0 0.1 0.3 0.819152 0 0.573576
0 0.1 -0.3 0.819152 0 0.573576
0 0.1 0.31799 0.819152 0 0.573576
0 0.1 -0.31799 0.819152 0 0.573576
0.0363518 0.1 0.31799 0.821948 0.00678195 0.576485
0.0363518 0.1 -0.31799 0.821888 0.00689167 0.57334
0.287374 0.1 0.15 0.825826 0.0126753 0.585375
0.287374 0.1 -0.15 0.824916 0.0125781 0.575793
0.150379 0.1 -0.3 0.82664 0.0136537 0.572823
0.150379 0.1 0.3 0.82759 0.013592 0.583073
0.219993 0.1 -0.2625 0.828075 0.0128655 0.573092
0.219993 0.1 0.2625 0.829679 0.0129693 0.58584
0.075776 0.1 0.3375 0.82503 0.01426 0.579631
0.075776 0.1 -0.3375 0.824895 0.0144818 0.573076
0.350249 0.1 0.0375 0.822306 0.0123019 0.583048
0.350249 0.1 -0.0375 0.822078 0.012267 0.580119
0 0.1 -0.35701 0.819152 0 0.573576
0 0.1 0.35701 0.819152 0 0.573576
0.0363518 0.1 0.35701 0.821948 0.00678195 0.576485
0.0363518 0.1 -0.35701 0.821888 0.00689167 0.57334
0.287374 0.1 0.225 0.826401 0.0126294 0.587598
0.287374 0.1 -0.225 0.825064 0.0125119 0.573405
0.350249 0.1 0.1125 0.822685 0.0123161 0.585947
0.350249 0.1 -0.1125 0.822022 0.0122209 0.577168
0 0.1 0.375 0.819152 0 0.573576
0 0.1 -0.375 0.819152 0 0.573576
0 0.1 -0.39299 0.819152 0 0.573576
0 0.1 0.39299 0.819152 0 0.573576
0.0363518 0.1 -0.39299 0.821844 0.0068446 0.57297
0.0363518 0.1 0.39299 0.821922 0.00674541 0.576714
0.350249 0.1 -0.1875 0.822133 0.0121652 0.574254
0.350249 0.1 0.1875 0.823215 0.012295 0.588733
0.219992 0.1 0.3375 0.830332 0.0128636 0.587405
0.219993 0.1 -0.3375 0.828436 0.0127758 0.571319
0.150379 0.1 0.375 0.82788 0.0134929 0.58409
0.150379 0.1 -0.375 0.826838 0.0135695 0.571543
0.411108 0.1 0 0.81733 0.0125876 0.582116
0.287374 0.1 0.3 0.827103 0.0125454 0.589711
0.287374 0.1 -0.3 0.825386 0.0124408 0.571083
0.411108 0.1 0.0710023 0.817723 0.0126069 0.585251
0.411108 0.1 -0.075 0.817206 0.0125436 0.578582
0.075776 0.1 0.4125 0.824976 0.0141856 0.58011
0.075776 0.1 -0.4125 0.824807 0.0143864 0.572303
0 0.1 0.43201 0.819152 0 0.573576
0 0.1 -0.43201 0.819152 0 0.573576
0.0363518 0.1 0.43201 0.821922 0.00674541 0.576714
0.0363518 0.1 -0.43201 0.821844 0.0068446 0.57297
0.411108 0.1 -0.15 0.817298 0.012489 0.575067
0.411108 0.1 0.15 0.818203 0.0126183 0.589047
0.350249 0.1 -0.2625 0.822418 0.0121062 0.571387
0.350249 0.1 0.2625 0.823903 0.0122437 0.591403
0 0.1 0.45 0.819152 0 0.573576
0 0.1 -0.45 0.819152 0 0.573576
0.219992 0.1 -0.4125 0.829036 0.01272 0.569577
0.219992 0.1 0.4125 0.830927 0.0127368 0.588832
0 0.1 0.46799 0.819152 0 0.573576
0 0.1 -0.46799 0.819152 0 0.573576
0.411108 0.1 0.225 0.818939 0.0125877 0.592344
0.411108 0.1 -0.225 0.817604 0.0124285 0.571613
0.467897 0.1 -0.0375 0.81255 0.0128566 0.580575
0.467897 0.1 0.0375 0.812788 0.0128968 0.584677
0.0363518 0.1 0.46799 0.821904 0.00671498 0.576903
0.0363518 0.1 -0.46799 0.821818 0.00681148 0.572624
0.287374 0.1 0.375 0.827872 0.0124219 0.591682
0.287374 0.1 -0.375 0.825902 0.0123784 0.568832
0.150379 0.1 0.45 0.82815 0.0133934 0.584998
0.150379 0.1 -0.45 0.827111 0.0135096 0.570303
0.467897 0.1 0.1125 0.813283 0.0129193 0.588722
0.467897 0.1 -0.1125 0.812575 0.0128019 0.576471
0.350249 0.1 0.3375 0.824755 0.0121388 0.59393
0.350249 0.1 -0.3375 0.822871 0.01205 0.568629
0.075776 0.1 -0.4875 0.824755 0.0143197 0.571582
0.075776 0.1 0.4875 0.824941 0.0141236 0.580503
0.467897 0.1 0.1875 0.814024 0.0129137 0.592644
0.467897 0.1 -0.1875 0.81286 0.0127406 0.572427
0 0.1 0.50701 0.819152 0 0.573576
0 0.1 -0.50701 0.819152 0 0.573576
0.0363518 0.1 -0.50701 0.821818 0.00681148 0.572624
0.0363518 0.1 0.50701 0.821904 0.00671498 0.576903
0.411108 0.1 0.3 0.819875 0.012513 0.595479
0.411108 0.1 -0.3 0.818115 0.0123653 0.568269
0.522865 0.1 -9.1073e-18 0.806583 0.0134832 0.582715
0 0.1 0.525 0.819152 0 0.573576
0 0.1 -0.525 0.819152 0 0.573576
0.522865 0.1 0.0710023 0.807048 0.0134984 0.586933
0.522865 0.1 -0.075 0.806512 0.013431 0.577995
0.287374 0.1 0.45 0.828655 0.0122691 0.593468
0.287374 0.1 -0.45 0.82655 0.0123277 0.56666
0.219992 0.1 -0.4875 0.829641 0.0126966 0.567899
0.219992 0.1 0.4875 0.831472 0.0126049 0.590122
0.467897 0.1 0.2625 0.814998 0.0128688 0.596409
0.467897 0.1 -0.2625 0.813393 0.0126748 0.568481
0.350249 0.1 -0.4125 0.823519 0.0120013 0.565942
0.350249 0.1 0.4125 0.825719 0.0119827 0.596251
0 0.1 0.54299 0.819152 0 0.573576
0 0.1 -0.54299 0.819152 0 0.573576
0.522865 0.1 -0.15 0.806758 0.0133621 0.573324
0.522865 0.1 0.15 0.807676 0.013515 0.592015
0.0363518 0.1 0.54299 0.821892 0.00669393 0.577058
0.0363518 0.1 -0.54299 0.821802 0.00678941 0.572306
0.150379 0.1 -0.525 0.827364 0.0134675 0.569142
0.150379 0.1 0.525 0.828392 0.0133016 0.58577
0.411108 0.1 0.375 0.820999 0.0123844 0.598405
0.411108 0.1 -0.375 0.818825 0.0123018 0.565056
0.075776 0.1 0.5625 0.824915 0.0140809 0.580827
0.075776 0.1 -0.5625 0.824724 0.014275 0.570917
0.522865 0.1 0.225 0.808674 0.0134799 0.596458
0.522865 0.1 -0.225 0.807308 0.0132809 0.56876
0.574156 0.1 0.0375 0.800846 0.0140853 0.585462
0.574157 0.1 -0.0375 0.80062 0.0140415 0.580136
0.467897 0.1 -0.3375 0.814156 0.0126036 0.564719
0.467897 0.1 0.3375 0.816216 0.0127707 0.599945
0 0.1 0.58201 0.819152 0 0.573576
0 0.1 -0.58201 0.819152 0 0.573576
0.0363518 0.1 0.58201 0.821892 0.00669393 0.577058
0.0363518 0.1 -0.58201 0.821802 0.00678941 0.572306
0.574156 0.1 0.1125 0.801448 0.0140989 0.59073
0.574156 0.1 -0.1125 0.800771 0.0139717 0.574838
0.287374 0.1 0.525 0.829411 0.0120968 0.595033
0.287374 0.1 -0.525 0.827184 0.0122659 0.564625
0 0.1 0.6 0.819152 0 0.573576
0 0.1 -0.6 0.819152 0 0.573576
0.350249 0.1 0.4875 0.826732 0.0117888 0.598323
0.350249 0.1 -0.4875 0.824253 0.0119277 0.5634
0.522865 0.1 -0.3 0.80814 0.013186 0.564377
0.522865 0.1 0.3 0.809964 0.0133976 0.60068
0.219992 0.1 0.5625 0.831932 0.0124781 0.591167
0.219992 0.1 -0.5625 0.830104 0.0126621 0.566361
0.574156 0.1 0.1875 0.80241 0.014076 0.595859
0.574157 0.1 -0.1875 0.801287 0.0138831 0.569644
0.411108 0.1 0.45 0.82226 0.012205 0.60107
0.411108 0.1 -0.45 0.819688 0.0122229 0.562001
0 0.1 0.61799 0.819152 0 0.573576
0 0.1 -0.61799 0.819152 0 0.573576
0.150379 0.1 0.6 0.8286 0.0132177 0.586386
0.150379 0.1 -0.6 0.827576 0.0134245 0.568084
0.0363518 0.1 -0.61799 0.821798 0.00676858 0.572021
0.0363518 0.1 0.61799 0.821887 0.00667443 0.577189
0.623413 0.1 0 0.793701 0.0149453 0.582516
0.467897 0.1 0.4125 0.817658 0.0126155 0.60322
0.467897 0.1 -0.4125 0.815116 0.0125265 0.561113
0.623803 0.1 0.0710023 0.794215 0.0149563 0.587867
0.623803 0.1 -0.075 0.793721 0.0148769 0.57657
0.574156 0.1 0.2625 0.803718 0.0140099 0.600769
0.574157 0.1 -0.2625 0.802145 0.0137753 0.564618
0.623803 0.1 -0.15 0.79418 0.0147765 0.570715
0.623803 0.1 0.15 0.795003 0.0149657 0.594309
0.075776 0.1 0.6375 0.824905 0.0140413 0.581097
0.075776 0.1 -0.6375 0.824717 0.0142325 0.570323
0.522865 0.1 -0.375 0.809217 0.0130745 0.560212
0.522865 0.1 0.375 0.811537 0.0132586 0.604625
0 0.1 0.65701 0.819152 0 0.573576
0 0.1 -0.65701 0.819152 0 0.573576
0.0363518 0.1 0.65701 0.821887 0.00667443 0.577189
0.0363518 0.1 -0.65701 0.821798 0.00676858 0.572021
0.350249 0.1 0.5625 0.827717 0.011556 0.600139
0.350249 0.1 -0.5625 0.824979 0.011815 0.561057
0.623803 0.1 0.225 0.796299 0.0149081 0.599964
0.623803 0.1 -0.225 0.795053 0.0146472 0.565035
0.287374 0.1 0.6 0.830103 0.0119165 0.596333
0.287374 0.1 -0.6 0.827762 0.0121814 0.562768
0.574156 0.1 0.3375 0.805363 0.0138906 0.605403
0.574157 0.1 -0.3375 0.803305 0.0136424 0.559857
0.411108 0.1 0.525 0.823589 0.0119773 0.603442
0.411108 0.1 -0.525 0.820626 0.0121065 0.559171
0.67013 0.1 0.0375 0.787014 0.0158205 0.585538
0.67013 0.1 -0.0375 0.78683 0.0157626 0.578947
0.219993 0.1 0.6375 0.832318 0.0123555 0.59196
0.219993 0.1 -0.6375 0.830506 0.0126119 0.564962
0 0.1 0.675 0.819152 0 0.573576
0 0.1 -0.675 0.819152 0 0.573576
0.467897 0.1 0.4875 0.819263 0.0124034 0.606174
0.467897 0.1 -0.4875 0.816214 0.0124119 0.557765
0.67013 0.1 0.1125 0.787719 0.0158298 0.592087
0.67013 0.1 -0.1125 0.787164 0.0156614 0.572422
0.522865 0.1 -0.45 0.81049 0.0129335 0.556314
0.522865 0.1 0.45 0.813356 0.0130591 0.608238
0.150379 0.1 0.675 0.828792 0.0131376 0.586858
0.150379 0.1 -0.675 0.827767 0.0133768 0.56713
0.623803 0.1 0.3 0.798001 0.0147976 0.605343
0.623803 0.1 -0.3 0.7963 0.0144857 0.559616
0 0.1 -0.69299 0.819152 0 0.573576
0 0.1 0.69299 0.819152 0 0.573576
0.0363518 0.1 0.69299 0.821889 0.00665478 0.577293
0.0363518 0.1 -0.69299 0.821802 0.00675119 0.571766
0.67013 0.1 0.1875 0.788931 0.0157869 0.598485
0.67013 0.1 -0.1875 0.78799 0.0155207 0.566063
0.574156 0.1 0.4125 0.80733 0.0137083 0.609695
0.574157 0.1 -0.4125 0.804711 0.0134809 0.555364
0.714619 0.1 4.77049e-18 0.779207 0.0169172 0.581646
0.075776 0.1 0.7125 0.824909 0.0140014 0.581314
0.075776 0.1 -0.7125 0.824725 0.014197 0.569794
0.714971 0.1 0.0710023 0.779744 0.0169347 0.58817
0.714971 0.1 -0.075 0.77936 0.0168155 0.574437
0.67013 0.1 0.2625 0.790622 0.0156892 0.604621
0.67013 0.1 -0.2625 0.78927 0.0153432 0.559963
0.411108 0.1 0.6 0.824914 0.0117164 0.605492
0.411108 0.1 -0.6 0.821586 0.0119543 0.556603
0.350249 0.1 0.6375 0.828631 0.0113218 0.601652
0.350249 0.1 -0.6375 0.825686 0.0116784 0.558939
0.623803 0.1 0.375 0.80009 0.0146255 0.610375
0.623803 0.1 -0.375 0.797867 0.0142865 0.554518
0.714971 0.1 0.15 0.7807 0.0169412 0.596035
0.714971 0.1 -0.15 0.780095 0.0166602 0.567377
0.467897 0.1 0.5625 0.820949 0.0121326 0.608787
0.467897 0.1 -0.5625 0.817391 0.0122491 0.554711
0 0.1 0.73201 0.819152 0 0.573576
0 0.1 -0.73201 0.819152 0 0.573576
0.0363518 0.1 0.73201 0.821889 0.00665478 0.577293
0.0363518 0.1 -0.73201 0.821802 0.00675119 0.571766
0.287374 0.1 0.675 0.830742 0.0117402 0.597362
0.287374 0.1 -0.675 0.828298 0.0120783 0.561097
0.522865 0.1 0.525 0.815353 0.0127974 0.611475
0.522865 0.1 -0.525 0.811905 0.0127481 0.552753
0.219992 0.1 0.7125 0.832689 0.0122409 0.592549
0.219992 0.1 -0.7125 0.83085 0.0125502 0.563704
0.714971 0.1 -0.225 0.781371 0.0164551 0.560575
0.714971 0.1 0.225 0.78232 0.0168571 0.602968
0 0.1 0.75 0.819152 0 0.573576
0 0.1 -0.75 0.819152 0 0.573576
0.67013 0.1 -0.3375 0.790944 0.0151187 0.554211
0.67013 0.1 0.3375 0.79277 0.0155317 0.610415
0.574157 0.1 0.4875 0.809569 0.0134612 0.613589
0.574157 0.1 -0.4875 0.806321 0.0132736 0.551253
0.756813 0.1 0.0375 0.7718 0.0180448 0.585016
0.756814 0.1 -0.0375 0.771692 0.0179564 0.57712
0.150379 0.1 -0.75 0.827934 0.0133265 0.566282
0.150379 0.1 0.75 0.828985 0.0130616 0.587205
0.756813 0.1 0.1125 0.772593 0.0180616 0.592897
0.756814 0.1 -0.1125 0.772258 0.0177985 0.569339
0 0.1 0.76799 0.819152 0 0.573576
0 0.1 -0.76799 0.819152 0 0.573576
0.0363518 0.1 0.76799 0.821894 0.0066376 0.577367
0.0363518 0.1 -0.76799 0.821811 0.0067366 0.571538
0.623803 0.1 0.45 0.802529 0.0143863 0.614993
0.623803 0.1 -0.45 0.7997 0.0140438 0.549811
0.714971 0.1 0.3 0.784484 0.0167069 0.609573
0.714971 0.1 -0.3 0.783131 0.0161953 0.554124
0.756813 0.1 0.1875 0.774059 0.0180014 0.60062
0.756813 0.1 -0.1875 0.773462 0.0175793 0.561806
0.67013 0.1 -0.4125 0.79295 0.0148447 0.548858
0.67013 0.1 0.4125 0.795346 0.015304 0.615782
0.411108 0.1 0.675 0.826195 0.0114455 0.607184
0.411108 0.1 -0.675 0.822545 0.011776 0.554317
0.467897 0.1 0.6375 0.822632 0.0118291 0.611012
0.467897 0.1 -0.6375 0.818602 0.0120548 0.551981
0.075776 0.1 -0.7875 0.824744 0.0141671 0.569319
0.075776 0.1 0.7875 0.82492 0.0139665 0.581469
0.350249 0.1 -0.7125 0.826362 0.0115185 0.557062
0.350249 0.1 0.7125 0.82949 0.0110932 0.602846
0.791054 0.1 0.0690034 0.766129 0.0190966 0.587987
0.522865 0.1 0.6 0.817445 0.0124821 0.614296
0.522865 0.1 -0.6 0.813408 0.0125234 0.549559
0.797314 0.1 -3.03577e-18 0.763835 0.0193688 0.580109
0.797314 0.1 -0.075 0.763919 0.0192563 0.571728
0.756814 0.1 0.2625 0.776161 0.0178667 0.608052
0.756814 0.1 -0.2625 0.775241 0.0172998 0.554627
0.287374 0.1 -0.75 0.828787 0.0119612 0.559625
0.287374 0.1 0.75 0.831352 0.011569 0.598137
0.574156 0.1 0.5625 0.812003 0.013146 0.61704
0.574156 0.1 -0.5625 0.808076 0.0130201 0.54755
0 0.1 0.80701 0.819152 0 0.573576
0 0.1 -0.80701 0.819152 0 0.573576
0.714971 0.1 -0.375 0.78531 0.0158777 0.548108
0.714971 0.1 0.375 0.787157 0.0164849 0.615758
0.0363518 0.1 0.80701 0.821894 0.0066376 0.577367
0.0363518 0.1 -0.80701 0.821811 0.0067366 0.571538
0.797314 0.1 0.15 0.765212 0.0194712 0.597299
0.797314 0.1 -0.15 0.765 0.0190163 0.563445
0.623803 0.1 0.525 0.805254 0.0140776 0.61914
0.623803 0.1 -0.525 0.801744 0.0137545 0.545565
0.219992 0.1 -0.7875 0.83113 0.0124778 0.562607
0.219992 0.1 0.7875 0.833058 0.0121299 0.592961
0 0.1 0.825 0.819152 0 0.573576
0 0.1 -0.825 0.819152 0 0.573576
0.797314 0.1 0.225 0.767163 0.0193617 0.605562
0.797314 0.1 -0.225 0.766759 0.0187001 0.555511
0.756813 0.1 -0.3375 0.777528 0.0169462 0.547887
0.756814 0.1 0.3375 0.778859 0.0176574 0.615067
0.67013 0.1 0.4875 0.798295 0.0150066 0.620663
0.67013 0.1 -0.4875 0.795238 0.0145207 0.544016
0.835106 0.1 0.0375 0.755646 0.0208553 0.584032
0.835106 0.1 -0.0375 0.755668 0.0207093 0.574801
0.150379 0.1 -0.825 0.828089 0.0132733 0.56554
0.150379 0.1 0.825 0.829178 0.0129884 0.587437
0.835106 0.1 0.1125 0.75649 0.0208948 0.593277
0.835106 0.1 -0.1125 0.75654 0.0204658 0.56574
0 0.1 -0.84299 0.819152 0 0.573576
0 0.1 0.84299 0.819152 0 0.573576
0.0363518 0.1 -0.84299 0.82182 0.00672148 0.571337
0.0363518 0.1 0.84299 0.821899 0.00662249 0.57741
0.714971 0.1 -0.45 0.787848 0.0155071 0.542621
0.714971 0.1 0.45 0.79029 0.0161865 0.621436
0.797314 0.1 0.3 0.769818 0.0191621 0.613449
0.797314 0.1 -0.3 0.769127 0.018304 0.548028
0.467897 0.1 0.7125 0.824268 0.0115152 0.612819
0.467897 0.1 -0.7125 0.81982 0.0118348 0.549588
0.522865 0.1 0.675 0.819552 0.0121336 0.616662
0.522865 0.1 -0.675 0.814955 0.012271 0.546752
0.411108 0.1 -0.75 0.823488 0.01158 0.552323
0.411108 0.1 0.75 0.827425 0.0111738 0.608505
0.835106 0.1 -0.1875 0.758212 0.0201298 0.557019
0.835107 0.1 0.1875 0.758193 0.0208281 0.602365
0.574156 0.1 0.6375 0.814537 0.0127765 0.620004
0.574156 0.1 -0.6375 0.80992 0.0127354 0.544284
0.350249 0.1 -0.7875 0.827004 0.0113486 0.555432
0.350249 0.1 0.7875 0.830309 0.0108678 0.603727
0.756814 0.1 0.4125 0.782109 0.0173661 0.621591
0.756814 0.1 -0.4125 0.780258 0.0165326 0.5417
0.623803 0.1 0.6 0.808182 0.0137018 0.622767
0.623803 0.1 -0.6 0.803932 0.0134281 0.541807
0.075776 0.1 0.8625 0.824931 0.0139357 0.581558
0.075776 0.1 -0.8625 0.824763 0.0141362 0.568901
0.871687 0.1 -0.00399773 0.747421 0.0223108 0.577409
0.287374 0.1 -0.825 0.829252 0.0118383 0.55835
0.287374 0.1 0.825 0.831942 0.0114004 0.598677
0.871687 0.1 0.075 0.747621 0.0224923 0.588299
0.871687 0.1 -0.075 0.747793 0.0221144 0.568549
0.67013 0.1 0.5625 0.801548 0.0146336 0.624993
0.67013 0.1 -0.5625 0.797733 0.0141529 0.539712
0.835106 0.1 0.2625 0.760717 0.0206525 0.611136
0.835106 0.1 -0.2625 0.760578 0.019704 0.548753
0.797314 0.1 0.375 0.773123 0.0188722 0.62084
0.797314 0.1 -0.375 0.77204 0.0178331 0.54111
0 0.1 -0.88201 0.819152 0 0.573576
0 0.1 0.88201 0.819152 0 0.573576
0.0363518 0.1 0.88201 0.821899 0.00662249 0.57741
0.0363518 0.1 -0.88201 0.82182 0.00672148 0.571337
0.871687 0.1 0.15 0.748966 0.0224945 0.59817
0.871687 0.1 -0.15 0.749269 0.0217532 0.559032
0.714971 0.1 0.525 0.793814 0.0158109 0.626535
0.714971 0.1 -0.525 0.790667 0.0150894 0.537729
0.219992 0.1 0.8625 0.833423 0.0120176 0.593224
0.219993 0.1 -0.8625 0.831419 0.0124004 0.561655
0 0.1 0.9 0.819152 0 0.573576
0 0.1 -0.9 0.819152 0 0.573576
0.756813 0.1 0.4875 0.785842 0.0169915 0.627494
0.756814 0.1 -0.4875 0.783359 0.0160669 0.536157
0.871687 0.1 0.225 0.751244 0.0223687 0.607799
0.871687 0.1 -0.225 0.751568 0.0212886 0.549968
0.835106 0.1 0.3375 0.763995 0.0203757 0.619424
0.835106 0.1 -0.3375 0.763596 0.0191834 0.541034
0.90582 0.1 -0.0375 0.739112 0.0237785 0.57205
0.905821 0.1 0.0375 0.738956 0.0240134 0.582636
0.150379 0.1 0.9 0.829366 0.0129167 0.587557
0.150379 0.1 -0.9 0.828248 0.0132187 0.564896
0.90582 0.1 0.1125 0.739848 0.0241039 0.593268
0.90582 0.1 -0.1125 0.740299 0.0234075 0.561695
0.522865 0.1 -0.75 0.816517 0.0120016 0.544336
0.522865 0.1 0.75 0.82162 0.0117702 0.61855
0.574156 0.1 0.7125 0.817076 0.0123728 0.622446
0.574156 0.1 -0.7125 0.811808 0.0124285 0.541463
0.797314 0.1 0.45 0.777017 0.0184895 0.627628
0.797314 0.1 -0.45 0.775416 0.0173024 0.534868
0.467897 0.1 -0.7875 0.821034 0.0116032 0.547532
0.467897 0.1 0.7875 0.825843 0.0112003 0.614197
0 0.1 0.91799 0.819152 0 0.573576
0 0.1 -0.91799 0.819152 0 0.573576
0.0363518 0.1 0.91799 0.821903 0.00660846 0.577418
0.0363518 0.1 -0.91799 0.82183 0.00670615 0.571163
0.623803 0.1 0.675 0.811211 0.0132725 0.625832
0.623803 0.1 -0.675 0.806207 0.0130767 0.538554
0.411108 0.1 -0.825 0.824416 0.0113782 0.550616
0.411108 0.1 0.825 0.828607 0.0109049 0.609459
0.871687 0.1 0.3 0.754398 0.0221177 0.61701
0.871687 0.1 -0.3 0.754608 0.0207215 0.541458
0.67013 0.1 0.6375 0.805006 0.0141905 0.628726
0.67013 0.1 -0.6375 0.800365 0.0137574 0.535973
0.90582 0.1 0.1875 0.741784 0.0240484 0.603748
0.905821 0.1 -0.1875 0.742463 0.0229172 0.551796
0.350249 0.1 0.8625 0.831099 0.010647 0.60431
0.350249 0.1 -0.8625 0.827637 0.0111806 0.554033
0.835106 0.1 0.4125 0.767973 0.0199957 0.627124
0.835106 0.1 -0.4125 0.76719 0.018593 0.534036
0.714971 0.1 0.6 0.79764 0.0153589 0.631004
0.714971 0.1 -0.6 0.793682 0.0146374 0.533462
0.93886 0.1 -0.00399773 0.730676 0.0259086 0.575065
0.075776 0.1 0.9375 0.82494 0.0139071 0.581573
0.075776 0.1 -0.9375 0.824782 0.0141049 0.568539
0.93886 0.1 0.075 0.730779 0.0261977 0.587496
0.93886 0.1 -0.075 0.731299 0.0256017 0.564979
0.756813 0.1 0.5625 0.789974 0.0165367 0.632744
0.756814 0.1 -0.5625 0.786724 0.0155584 0.5313
0.90582 0.1 0.2625 0.744723 0.0238433 0.613888
0.905821 0.1 -0.2625 0.74544 0.0223155 0.542457
0.287374 0.1 0.9 0.832514 0.0112342 0.598995
0.287374 0.1 -0.9 0.829718 0.0117153 0.55726
0.871687 0.1 0.375 0.758357 0.0217481 0.625644
0.871687 0.1 -0.375 0.758335 0.0200643 0.533646
0.93886 0.1 0.15 0.732243 0.02624 0.59879
0.93886 0.1 -0.15 0.733245 0.0250695 0.554193
0.797314 0.1 0.525 0.781409 0.0180188 0.633719
0.797314 0.1 -0.525 0.779148 0.0167241 0.529365
0 0.1 0.95701 0.819152 0 0.573576
0 0.1 -0.95701 0.819152 0 0.573576
0.0363518 0.1 0.95701 0.821903 0.00660846 0.577418
0.0363518 0.1 -0.95701 0.82183 0.00670615 0.571163
0.219992 0.1 0.9375 0.833775 0.0119062 0.593328
0.219992 0.1 -0.9375 0.831718 0.0123236 0.560835
0.93886 0.1 0.225 0.734835 0.0261069 0.60983
0.93886 0.1 -0.225 0.736158 0.0244124 0.543978
0.90582 0.1 0.3375 0.748585 0.0234985 0.623494
0.905821 0.1 -0.3375 0.749222 0.0216006 0.533768
0.835107 0.1 0.4875 0.772561 0.0195142 0.634115
0.835107 0.1 -0.4875 0.771244 0.0179457 0.527817
0.969689 0.1 0.0375 0.721919 0.0281934 0.581002
0.969689 0.1 -0.0375 0.722289 0.0278315 0.568989
0.574156 0.1 0.7875 0.819562 0.0119556 0.624346
0.574156 0.1 -0.7875 0.813711 0.0121129 0.539085
0 0.1 0.975 0.819152 0 0.573576
0 0.1 -0.975 0.819152 0 0.573576
0.623803 0.1 0.75 0.814246 0.0128098 0.628305
0.623803 0.1 -0.75 0.808519 0.0127109 0.535804
0.96969 0.1 0.1125 0.722805 0.0283609 0.593093
0.96969 0.1 -0.1125 0.723897 0.0272765 0.557268
0.522865 0.1 -0.825 0.818076 0.0117251 0.542305
0.522865 0.1 0.825 0.823622 0.011404 0.619953
0.67013 0.1 0.7125 0.808555 0.013693 0.631821
0.67013 0.1 -0.7125 0.80307 0.0133431 0.532802
0.871687 0.1 0.45 0.76304 0.0212611 0.633581
0.871687 0.1 -0.45 0.762635 0.0193391 0.526666
0.467897 0.1 0.8625 0.827356 0.0108898 0.615155
0.467897 0.1 -0.8625 0.822235 0.0113682 0.545803
0.714971 0.1 -0.675 0.796815 0.014165 0.529831
0.714971 0.1 0.675 0.801658 0.0148381 0.634792
0.93886 0.1 0.3 0.738494 0.0258013 0.620411
0.93886 0.1 -0.3 0.739939 0.0236338 0.534419
0.150379 0.1 0.975 0.829544 0.0128461 0.587566
0.150379 0.1 -0.975 0.82841 0.0131642 0.564347
0.969689 0.1 -0.1875 0.726712 0.0265691 0.546134
0.969689 0.1 0.1875 0.724943 0.0283264 0.605033
0.411108 0.1 0.9 0.829744 0.0106407 0.610066
0.411108 0.1 -0.9 0.825335 0.011176 0.549184
0.756813 0.1 0.6375 0.794405 0.0160028 0.637275
0.756813 0.1 -0.6375 0.790263 0.0150271 0.527147
0.990306 0.1 3.46945e-18 0.71749 0.0290168 0.57329
0 0.1 0.99299 0.819152 0 0.573576
0 0.1 -0.99299 0.819152 0 0.573576
0.990306 0.1 0.075 0.717502 0.0293939 0.586636
0.990306 0.1 -0.075 0.718312 0.0285841 0.561988
0.0363518 0.1 0.99299 0.821906 0.00659492 0.577397
0.0363518 0.1 -0.99299 0.821839 0.00669169 0.571015
0.905821 0.1 0.4125 0.753285 0.0230237 0.6324
0.905821 0.1 -0.4125 0.753713 0.0208033 0.525953
0.797314 0.1 0.6 0.786201 0.0174622 0.639049
0.797314 0.1 -0.6 0.78312 0.0161154 0.524637
0.350249 0.1 0.9375 0.831861 0.0104315 0.60462
0.350249 0.1 -0.9375 0.828267 0.0110148 0.552859
0.990306 0.1 0.15 0.719058 0.0294862 0.599024
0.990306 0.1 -0.15 0.720652 0.0278945 0.550229
0.969689 0.1 -0.2625 0.730393 0.0257458 0.535674
0.969689 0.1 0.2625 0.728291 0.0280891 0.616599
0.835106 0.1 0.5625 0.77765 0.0189459 0.640301
0.835106 0.1 -0.5625 0.77562 0.0172599 0.522444
0.93886 0.1 0.375 0.743129 0.0253349 0.630335
0.93886 0.1 -0.375 0.744568 0.0227427 0.525674
0.075776 0.1 1.0125 0.824946 0.0138796 0.58153
0.075776 0.1 -1.0125 0.824802 0.0140755 0.56823
0.990306 0.1 0.225 0.721899 0.0293637 0.611148
0.990306 0.1 -0.225 0.724077 0.0270763 0.539143
0.287374 0.1 0.975 0.833062 0.0110696 0.599105
0.287374 0.1 -0.975 0.830184 0.0115924 0.556347
0.871687 0.1 0.525 0.768344 0.0206649 0.640698
0.871687 0.1 -0.525 0.76737 0.0185675 0.520588
1.02149 0.1 -0.0369628 0.709328 0.030796 0.565546
1.02149 0.1 0.0369628 0.707154 0.0317296 0.579151
0.969689 0.1 -0.3375 0.735057 0.0247774 0.52595
0.96969 0.1 0.3375 0.732766 0.0276554 0.627576
1.02149 0.1 0.110888 0.70806 0.0319959 0.59222
1.02149 0.1 -0.110888 0.709512 0.0305233 0.553513
0.90582 0.1 0.4875 0.75873 0.0224155 0.64052
0.905821 0.1 -0.4875 0.758752 0.0199434 0.519085
0 0.1 1.03201 0.819152 0 0.573576
0 0.1 -1.03201 0.819152 0 0.573576
0.0363518 0.1 1.03201 0.821906 0.00659492 0.577397
0.0363518 0.1 -1.03201 0.821839 0.00669169 0.571015
0.67013 0.1 0.7875 0.812086 0.0131642 0.634252
0.67013 0.1 -0.7875 0.805791 0.0129204 0.530184
0.623803 0.1 -0.825 0.810827 0.0123397 0.533545
0.623803 0.1 0.825 0.817218 0.0123329 0.630175
0.990306 0.1 0.3 0.725959 0.0290283 0.622784
0.990306 0.1 -0.3 0.728472 0.0261223 0.528769
0.219992 0.1 -1.0125 0.832014 0.0122453 0.56015
0.219992 0.1 1.0125 0.834106 0.0117953 0.593287
0.574156 0.1 -0.8625 0.815601 0.0117928 0.537134
0.574157 0.1 0.8625 0.821959 0.011538 0.625706
0.714971 0.1 0.75 0.805747 0.0142655 0.637867
0.714971 0.1 -0.75 0.799994 0.0136818 0.526827
1.02149 0.1 0.184814 0.710354 0.032025 0.605155
1.02149 0.1 -0.184814 0.712728 0.0296404 0.541563
0.756814 0.1 0.7125 0.799005 0.0153977 0.641046
0.756813 0.1 -0.7125 0.793888 0.0144833 0.523698
0.522865 0.1 0.9 0.825544 0.0110411 0.620885
0.522865 0.1 -0.9 0.819613 0.0114456 0.540643
0.93886 0.1 0.45 0.748638 0.024715 0.639457
0.93886 0.1 -0.45 0.749903 0.0217671 0.51793
1.04168 0.1 0 0.701285 0.0330841 0.57171
1.04168 0.1 0.0729162 0.701449 0.0335117 0.585071
1.04168 0.1 -0.0729162 0.702531 0.0324187 0.55855
0.797314 0.1 0.675 0.791271 0.0168222 0.64357
0.797314 0.1 -0.675 0.787229 0.0154922 0.520689
0.467897 0.1 0.9375 0.828807 0.0105838 0.615716
0.467897 0.1 -0.9375 0.823418 0.0111313 0.544388
0 0.1 1.05 0.819152 0 0.573576
0 0.1 -1.05 0.819152 0 0.573576
0.835106 0.1 0.6375 0.783134 0.0182803 0.64563
0.835106 0.1 -0.6375 0.780195 0.0165563 0.517929
1.04168 0.1 0.145832 0.703029 0.0336974 0.598422
1.04168 0.1 -0.145832 0.705166 0.0315433 0.545924
1.02149 0.1 0.25874 0.713986 0.031817 0.617713
1.02149 0.1 -0.25874 0.716951 0.0286752 0.530371
0.969689 0.1 0.4125 0.738251 0.0270458 0.637751
0.969689 0.1 -0.4125 0.740611 0.0237006 0.517224
0.411108 0.1 0.975 0.830834 0.0103797 0.610349
0.411108 0.1 -0.975 0.826237 0.0109733 0.548016
0.871687 0.1 0.6 0.774142 0.0199687 0.646908
0.871687 0.1 -0.6 0.772391 0.0177718 0.515449
1.0579 0.1 -0.0360525 0.697364 0.0338848 0.562449
1.0579 0.1 0.0360525 0.696182 0.0346703 0.577618
0.990306 0.1 0.375 0.731135 0.028493 0.633712
0.990306 0.1 -0.375 0.733858 0.0250267 0.519283
0.150379 0.1 1.05 0.829712 0.0127777 0.587472
0.150379 0.1 -1.05 0.828569 0.0131102 0.563893
1.0579 0.1 -0.108157 0.698803 0.0332399 0.550827
1.0579 0.1 0.108157 0.697009 0.0350192 0.591281
1.04168 0.1 0.218749 0.705998 0.0336323 0.611524
1.04168 0.1 -0.218749 0.709028 0.0305508 0.534079
0.90582 0.1 0.5625 0.764799 0.0216926 0.647663
0.905821 0.1 -0.5625 0.764191 0.0190562 0.513246
0 0.1 -1.06799 0.819152 0 0.573576
0 0.1 1.06799 0.819152 0 0.573576
0.0363518 0.1 -1.06799 0.821849 0.00667876 0.570893
0.0363518 0.1 1.06799 0.821909 0.00658201 0.577347
0.350249 0.1 1.0125 0.83259 0.0102156 0.604682
0.350249 0.1 -1.0125 0.828888 0.0108483 0.551902
1.0579 0.1 -0.180262 0.70219 0.0322185 0.538359
1.0579 0.1 0.180262 0.699262 0.0351083 0.604828
1.02149 0.1 0.332665 0.718871 0.0313741 0.629675
1.02149 0.1 -0.332665 0.722259 0.0275075 0.519874
0.93886 0.1 0.525 0.754903 0.023956 0.647637
0.93886 0.1 -0.525 0.755753 0.0207444 0.511297
1.08012 0.1 1.70581e-17 0.689436 0.0364055 0.569676
1.04168 0.1 0.291665 0.710291 0.0333163 0.624143
1.04168 0.1 -0.291665 0.713966 0.0294101 0.522962
1.08012 0.1 0.0709941 0.689505 0.0369385 0.583654
1.08012 0.1 -0.074001 0.690906 0.0355633 0.554722
0.969689 0.1 -0.4875 0.746838 0.0225396 0.509676
0.96969 0.1 0.4875 0.744638 0.0262628 0.647007
1.0579 0.1 0.252367 0.702894 0.0349357 0.618009
1.0579 0.1 -0.252367 0.706727 0.031135 0.526709
0.990306 0.1 -0.45 0.74007 0.023829 0.510958
0.990306 0.1 0.45 0.737306 0.0277698 0.643758
0.287374 0.1 -1.05 0.830639 0.0114686 0.555607
0.287374 0.1 1.05 0.83358 0.010908 0.599022
1.08012 0.1 0.141988 0.691032 0.0372092 0.597638
1.08012 0.1 -0.141988 0.693613 0.0345961 0.542696
0.075776 0.1 1.0875 0.824953 0.0138533 0.581426
0.075776 0.1 -1.0875 0.824822 0.0140492 0.567977
0.714971 0.1 0.825 0.809794 0.0136648 0.640212
0.714971 0.1 -0.825 0.803158 0.0131965 0.524428
0.756813 0.1 0.7875 0.803644 0.014743 0.644026
0.756813 0.1 -0.7875 0.797523 0.0139356 0.520929
0.67013 0.1 0.8625 0.815521 0.0126251 0.636024
0.67013 0.1 -0.8625 0.808483 0.012498 0.528102
0.797314 0.1 -0.75 0.791381 0.0148654 0.517506
0.797314 0.1 0.75 0.796482 0.0161151 0.647247
0.623803 0.1 0.9 0.820081 0.0118558 0.631451
0.623803 0.1 -0.9 0.813096 0.0119676 0.531754
0.835106 0.1 0.7125 0.788867 0.0175295 0.650062
0.835107 0.1 -0.7125 0.784861 0.0158478 0.514264
0.574156 0.1 0.9375 0.824252 0.0111252 0.626541
0.574156 0.1 -0.9375 0.817447 0.0114705 0.535589
1.02149 0.1 -0.406591 0.72861 0.026207 0.510484
1.02149 0.1 0.406591 0.724882 0.030714 0.640819
1.08012 0.1 -0.212982 0.697728 0.0334568 0.530325
1.08012 0.1 0.212982 0.693989 0.0372054 0.61139
1.10076 0.1 -0.0349809 0.682901 0.0380633 0.561406
1.10076 0.1 0.0349809 0.682192 0.0387884 0.575667
0.871687 0.1 0.675 0.780288 0.0191786 0.652169
0.871687 0.1 -0.675 0.777565 0.0169694 0.511246
1.04168 0.1 0.364581 0.715805 0.0327584 0.63606
1.04168 0.1 -0.364581 0.719998 0.0280845 0.512744
1.10076 0.1 0.104943 0.68297 0.0392528 0.590052
1.10076 0.1 -0.104943 0.685072 0.0370683 0.547446
0.522865 0.1 0.975 0.827381 0.0106835 0.621372
0.522865 0.1 -0.975 0.821111 0.0111646 0.539331
1.0579 0.1 0.324472 0.707827 0.034502 0.630605
1.0579 0.1 -0.324472 0.712352 0.0298101 0.515741