# UMean  POINT_DATA 63831
# x  y  z  UMean_x  UMean_y  UMean_z
0 0.5 3.39583e-17 0.819152 0 0.573576
0 0.5 -0.00617931 0.819152 0 0.573576
0 0.5 0.00617931 0.819152 0 0.573576
0.0124865 0.5 0.00617931 0.819126 0.000875316 0.574102
0.0124865 0.5 -0.00617931 0.819126 0.00088088 0.573991
0 0.5 -0.0688207 0.819152 0 0.573576
0 0.5 0.0688207 0.819152 0 0.573576
0.0124865 0.5 0.0688207 0.819126 0.000875316 0.574102
0.0124865 0.5 -0.0688207 0.819126 0.00088088 0.573991
0 0.5 0.075 0.819152 0 0.573576
0 0.5 -0.075 0.819152 0 0.573576
0 0.5 -0.0811793 0.819152 0 0.573576
0 0.5 0.0811793 0.819152 0 0.573576
0.0124865 0.5 0.0811793 0.819128 0.000865734 0.574209
0.0124865 0.5 -0.0811793 0.819126 0.000882254 0.573876
0.075776 0.5 0.0375 0.818971 0.00530647 0.576756
0.075776 0.5 -0.0375 0.818969 0.00534029 0.576085
0.075776 0.5 0.1125 0.818985 0.00524865 0.577404
0.075776 0.5 -0.1125 0.818971 0.00534914 0.575393
0 0.5 -0.143821 0.819152 0 0.573576
0 0.5 0.143821 0.819152 0 0.573576
0.0124865 0.5 0.143821 0.819128 0.000865734 0.574209
0.0124865 0.5 -0.143821 0.819126 0.000882254 0.573876
0 0.5 0.15 0.819152 0 0.573576
0 0.5 -0.15 0.819152 0 0.573576
0.151149 0.5 2.20565e-18 0.817833 0.00892677 0.578195
0 0.5 -0.156179 0.819152 0 0.573576
0 0.5 0.156179 0.819152 0 0.573576
0.0124865 0.5 0.156179 0.819132 0.000852579 0.57431
0.0124865 0.5 -0.156179 0.819124 0.000880076 0.573766
0.151149 0.5 0.075 0.817883 0.00886887 0.579373
0.151149 0.5 -0.075 0.817806 0.00895033 0.576981
0.075776 0.5 0.1875 0.819006 0.00516924 0.578016
0.075776 0.5 -0.1875 0.818956 0.0053364 0.574727
0.151149 0.5 0.15 0.817951 0.00877681 0.580512
0.151149 0.5 -0.15 0.817792 0.0089419 0.57576
0 0.5 -0.218821 0.819152 0 0.573576
0 0.5 0.218821 0.819152 0 0.573576
0.0124865 0.5 0.218821 0.819132 0.000852579 0.57431
0.0124865 0.5 -0.218821 0.819124 0.000880076 0.573766
0.219992 0.5 0.0375 0.816808 0.0122705 0.580693
0.219992 0.5 -0.0375 0.816735 0.0123175 0.579014
0 0.5 0.225 0.819152 0 0.573576
0 0.5 -0.225 0.819152 0 0.573576
0 0.5 -0.231179 0.819152 0 0.573576
0 0.5 0.231179 0.819152 0 0.573576
0.0124865 0.5 0.231179 0.819137 0.000836466 0.574404
0.0124865 0.5 -0.231179 0.819123 0.000875959 0.573648
0.219993 0.5 0.1125 0.81691 0.0121792 0.582343
0.219993 0.5 -0.1125 0.816704 0.0123218 0.577272
0.151149 0.5 0.225 0.818039 0.00865157 0.58159
0.151149 0.5 -0.225 0.81779 0.00890556 0.57455
0.075776 0.5 0.2625 0.819033 0.00507137 0.578585
0.075776 0.5 -0.2625 0.818955 0.00531153 0.57402
0.288069 0.5 3.34766e-17 0.813999 0.0156399 0.581038
0.219992 0.5 0.1875 0.817041 0.0120427 0.583922
0.219992 0.5 -0.1875 0.816691 0.0122885 0.575557
0 0.5 0.293821 0.819152 0 0.573576
0 0.5 -0.293821 0.819152 0 0.573576
0.0124865 0.5 -0.293821 0.819123 0.000875959 0.573648
0.0124865 0.5 0.293821 0.819137 0.000836466 0.574404
0.288069 0.5 0.075 0.81415 0.0155617 0.583242
0.288069 0.5 -0.075 0.813912 0.0156638 0.5788
0 0.5 0.3 0.819152 0 0.573576
0 0.5 -0.3 0.819152 0 0.573576
0 0.5 0.306179 0.819152 0 0.573576
0 0.5 -0.306179 0.819152 0 0.573576
0.0124865 0.5 0.306179 0.819142 0.000817741 0.57449
0.0124865 0.5 -0.306179 0.819123 0.000869283 0.573538
0.288069 0.5 0.15 0.814362 0.0154282 0.585383
0.288069 0.5 -0.15 0.813892 0.015634 0.576552
0.151149 0.5 0.3 0.818146 0.00849538 0.582593
0.151149 0.5 -0.3 0.817809 0.00884215 0.573357
0.219992 0.5 0.2625 0.817206 0.0118604 0.58541
0.219992 0.5 -0.2625 0.816713 0.0122163 0.573874
0.075776 0.5 0.3375 0.819064 0.00495742 0.579105
0.075776 0.5 -0.3375 0.818954 0.00527135 0.573354
0.350249 0.5 0.0375 0.811483 0.0187467 0.58351
0.350249 0.5 -0.0375 0.811315 0.0188014 0.580788
0.288069 0.5 0.225 0.814635 0.015238 0.587422
0.288069 0.5 -0.225 0.813933 0.0155516 0.57434
0.350249 0.5 0.1125 0.811739 0.0186281 0.58621
0.350249 0.5 -0.1125 0.811247 0.0187914 0.578044
0 0.5 0.368821 0.819152 0 0.573576
0 0.5 -0.368821 0.819152 0 0.573576
0.0124865 0.5 0.368821 0.819142 0.000817741 0.57449
0.0124865 0.5 -0.368821 0.819123 0.000869283 0.573538
0 0.5 0.375 0.819152 0 0.573576
0 0.5 -0.375 0.819152 0 0.573576
0 0.5 -0.381179 0.819152 0 0.573576
0 0.5 0.381179 0.819152 0 0.573576
0.0124865 0.5 0.381179 0.819148 0.000796824 0.574567
0.0124865 0.5 -0.381179 0.819125 0.000859645 0.573428
0.350249 0.5 0.1875 0.812086 0.0184434 0.58878
0.350249 0.5 -0.1875 0.811278 0.0187131 0.575318
0.219992 0.5 0.3375 0.817399 0.0116364 0.586786
0.219992 0.5 -0.3375 0.816767 0.0121039 0.572221
0.151149 0.5 0.375 0.818268 0.00831125 0.583508
0.151149 0.5 -0.375 0.81785 0.00875042 0.572207
0.411736 0.5 1.70099e-17 0.807495 0.0220487 0.582864
0.288069 0.5 0.3 0.814965 0.0149921 0.589341
0.288069 0.5 -0.3 0.814037 0.0154169 0.572181
0.411736 0.5 0.075 0.807767 0.0219573 0.586116
0.411736 0.5 -0.075 0.80736 0.0220586 0.579585
0.075776 0.5 0.4125 0.819101 0.00482988 0.579569
0.075776 0.5 -0.4125 0.818963 0.00521302 0.57269
0.350249 0.5 -0.2625 0.811397 0.0185706 0.572657
0.350249 0.5 0.2625 0.812519 0.0181899 0.591238
0.411736 0.5 0.15 0.808174 0.0217847 0.589287
0.411736 0.5 -0.15 0.807365 0.0219855 0.576317
0 0.5 -0.443821 0.819152 0 0.573576
0 0.5 0.443821 0.819152 0 0.573576
0.0124865 0.5 0.443821 0.819148 0.000796824 0.574567
0.0124865 0.5 -0.443821 0.819125 0.000859645 0.573428
0 0.5 0.45 0.819152 0 0.573576
0 0.5 -0.45 0.819152 0 0.573576
0 0.5 -0.456179 0.819152 0 0.573576
0 0.5 0.456179 0.819152 0 0.573576
0.0124865 0.5 0.456179 0.819155 0.000774127 0.574634
0.0124865 0.5 -0.456179 0.81913 0.000846636 0.573326
0.219992 0.5 -0.4125 0.816864 0.0119535 0.570667
0.219993 0.5 0.4125 0.817615 0.0113737 0.588033
0.411736 0.5 0.225 0.808712 0.0215305 0.592332
0.411736 0.5 -0.225 0.807507 0.0218305 0.57311
0.467897 0.5 0.0375 0.80394 0.0251007 0.585435
0.467897 0.5 -0.0375 0.803701 0.0251479 0.581639
0.288069 0.5 0.375 0.815346 0.0146944 0.591107
0.288069 0.5 -0.375 0.814207 0.0152323 0.570112
0.151149 0.5 -0.45 0.81792 0.00863109 0.57111
0.151149 0.5 0.45 0.818403 0.00810224 0.584325
0.467897 0.5 0.1125 0.804358 0.0249562 0.589162
0.467897 0.5 -0.1125 0.803637 0.0250969 0.577846
0.350249 0.5 0.3375 0.81303 0.0178718 0.593529
0.350249 0.5 -0.3375 0.811611 0.0183642 0.570078
0.075776 0.5 -0.4875 0.818993 0.00513432 0.57207
0.075776 0.5 0.4875 0.819142 0.00469128 0.579973
0.467897 0.5 0.1875 0.804954 0.0247166 0.592788
0.467897 0.5 -0.1875 0.803756 0.0249472 0.574102
0.411736 0.5 0.3 0.80937 0.0211963 0.595212
0.411736 0.5 -0.3 0.807782 0.021597 0.570004
0 0.5 -0.518821 0.819152 0 0.573576
0 0.5 0.518821 0.819152 0 0.573576
0.0124865 0.5 0.518821 0.819155 0.000774127 0.574634
0.0124865 0.5 -0.518821 0.81913 0.000846636 0.573326
0.523432 0.5 3.75966e-17 0.799031 0.0283727 0.583843
0 0.5 0.525 0.819152 0 0.573576
0 0.5 -0.525 0.819152 0 0.573576
0.523432 0.5 0.075 0.799419 0.0282826 0.588167
0.523432 0.5 -0.075 0.798876 0.0283467 0.579493
0 0.5 -0.531179 0.819152 0 0.573576
0 0.5 0.531179 0.819152 0 0.573576
0.0124865 0.5 0.531179 0.819163 0.000749946 0.57469
0.0124865 0.5 -0.531179 0.819134 0.000831615 0.573231
0.288069 0.5 0.45 0.815768 0.014349 0.592701
0.288069 0.5 -0.45 0.814439 0.0150045 0.568153
0.219992 0.5 -0.4875 0.817002 0.0117703 0.569177
0.219992 0.5 0.4875 0.817849 0.0110765 0.589135
0.467897 0.5 -0.2625 0.804049 0.0247029 0.570466
0.467897 0.5 0.2625 0.805712 0.024382 0.596253
0.350249 0.5 0.4125 0.81361 0.0174928 0.595626
0.350249 0.5 -0.4125 0.811915 0.0181018 0.567647
0.523432 0.5 0.15 0.800035 0.0280782 0.592403
0.523432 0.5 -0.15 0.798953 0.0282047 0.575186
0.151149 0.5 0.525 0.818547 0.0078717 0.585035
0.151149 0.5 -0.525 0.818006 0.00848822 0.570079
0.411736 0.5 0.375 0.810137 0.0207864 0.597883
0.411736 0.5 -0.375 0.808183 0.0212913 0.567044
0.075776 0.5 0.5625 0.819187 0.00454342 0.580315
0.075776 0.5 -0.5625 0.819015 0.00504335 0.571496
0.523432 0.5 0.225 0.800871 0.027762 0.596491
0.523432 0.5 -0.225 0.799261 0.02795 0.570984
0.574156 0.5 0.0375 0.794656 0.0314238 0.586576
0.574157 0.5 -0.0375 0.794354 0.0314419 0.581688
0.467897 0.5 0.3375 0.806621 0.0239575 0.599501
0.467897 0.5 -0.3375 0.80451 0.0243691 0.566973
0.574156 0.5 0.1125 0.79524 0.0312726 0.591403
0.574156 0.5 -0.1125 0.794337 0.031326 0.576826
0 0.5 -0.593821 0.819152 0 0.573576
0 0.5 0.593821 0.819152 0 0.573576
0.0124865 0.5 0.593821 0.819163 0.000749946 0.57469
0.0124865 0.5 -0.593821 0.819134 0.000831615 0.573231
0.288069 0.5 0.525 0.816225 0.0139613 0.594105
0.288069 0.5 -0.525 0.814714 0.0147394 0.566312
0 0.5 0.6 0.819152 0 0.573576
0 0.5 -0.6 0.819152 0 0.573576
0.350249 0.5 0.4875 0.814247 0.0170585 0.597504
0.350249 0.5 -0.4875 0.812289 0.0177944 0.565338
0.523432 0.5 -0.3 0.799787 0.027589 0.566938
0.523432 0.5 0.3 0.801912 0.0273372 0.600372
0.219992 0.5 0.5625 0.818095 0.0107495 0.590083
0.219992 0.5 -0.5625 0.817148 0.0115593 0.567793
0.574156 0.5 0.1875 0.796095 0.0309921 0.596104
0.574157 0.5 -0.1875 0.794605 0.0310793 0.572056
0 0.5 -0.606179 0.819152 0 0.573576
0 0.5 0.606179 0.819152 0 0.573576
0.0124865 0.5 0.606179 0.81917 0.000724529 0.574735
0.0124865 0.5 -0.606179 0.819138 0.000814946 0.573143
0.411736 0.5 0.45 0.810996 0.020306 0.600312
0.411736 0.5 -0.45 0.808692 0.0209242 0.564256
0.151149 0.5 0.6 0.818699 0.00762304 0.585633
0.151149 0.5 -0.6 0.818097 0.00832658 0.569124
0.467897 0.5 0.4125 0.807661 0.023447 0.602492
0.467897 0.5 -0.4125 0.805119 0.0239577 0.56369
0.624316 0.5 2.64545e-17 0.789013 0.0346768 0.584108
0.624316 0.5 0.075 0.789506 0.0346068 0.589543
0.624316 0.5 -0.075 0.788869 0.0345941 0.578667
0.574156 0.5 -0.2625 0.795146 0.0307077 0.567451
0.574157 0.5 0.2625 0.797211 0.0305854 0.600606
0.075776 0.5 0.6375 0.819233 0.00438822 0.580591
0.075776 0.5 -0.6375 0.819039 0.00494213 0.570964
0.624316 0.5 0.15 0.790338 0.0343861 0.594886
0.624316 0.5 -0.15 0.789074 0.0343612 0.573306
0.523432 0.5 0.375 0.803138 0.0268092 0.60399
0.523432 0.5 -0.375 0.80051 0.0271322 0.563106
0.350249 0.5 -0.5625 0.812713 0.0174444 0.563206
0.350249 0.5 0.5625 0.814928 0.0165759 0.599142
0.624316 0.5 0.225 0.791495 0.0340188 0.600054
0.624316 0.5 -0.225 0.789615 0.0339841 0.568104
0.288069 0.5 0.6 0.816705 0.0135374 0.595303
0.288069 0.5 -0.6 0.81502 0.0144414 0.564614
0.574157 0.5 0.3375 0.79857 0.0300576 0.604858
0.574157 0.5 -0.3375 0.795937 0.0302215 0.563054
0.411736 0.5 0.525 0.81193 0.0197621 0.602469
0.411736 0.5 -0.525 0.809289 0.0205037 0.56166
0 0.5 -0.668821 0.819152 0 0.573576
0 0.5 0.668821 0.819152 0 0.573576
0.0124865 0.5 0.668821 0.81917 0.000724529 0.574735
0.0124865 0.5 -0.668821 0.819138 0.000814946 0.573143
0.67013 0.5 0.0375 0.783967 0.0377576 0.587088
0.67013 0.5 -0.0375 0.783631 0.037728 0.581081
0.219993 0.5 -0.6375 0.817311 0.0113245 0.566515
0.219992 0.5 0.6375 0.81835 0.0103977 0.590869
0 0.5 0.675 0.819152 0 0.573576
0 0.5 -0.675 0.819152 0 0.573576
0.467897 0.5 -0.4875 0.805849 0.0234805 0.560609
0.467897 0.5 0.4875 0.808811 0.022858 0.605189
0.67013 0.5 0.1125 0.784712 0.037616 0.593051
0.67013 0.5 -0.1125 0.78371 0.0375281 0.57513
0 0.5 -0.681179 0.819152 0 0.573576
0 0.5 0.681179 0.819152 0 0.573576
0.0124865 0.5 0.681179 0.819177 0.000698328 0.57477
0.0124865 0.5 -0.681179 0.819142 0.000796852 0.573063
0.523432 0.5 0.45 0.804522 0.0261849 0.607295
0.523432 0.5 -0.45 0.801404 0.0265925 0.559526
0.151149 0.5 0.675 0.818854 0.00735989 0.586114
0.151149 0.5 -0.675 0.818198 0.00814854 0.568247
0.624316 0.5 0.3 0.792959 0.0335102 0.604975
0.624316 0.5 -0.3 0.79047 0.0334732 0.563125
0.67013 0.5 0.1875 0.785847 0.0373073 0.598874
0.67013 0.5 -0.1875 0.784192 0.0371642 0.569325
0.574156 0.5 0.4125 0.80014 0.0294153 0.608784
0.574156 0.5 -0.4125 0.796948 0.0296352 0.558948
0.715434 0.5 3.51282e-17 0.777807 0.0409799 0.583797
0.075776 0.5 0.7125 0.819279 0.00422806 0.580802
0.075776 0.5 -0.7125 0.819066 0.00483191 0.570478
0.715434 0.5 0.075 0.778385 0.0409462 0.590373
0.715434 0.5 -0.075 0.777715 0.0408235 0.577241
0.67013 0.5 0.2625 0.787351 0.0368371 0.604464
0.67013 0.5 -0.2625 0.785053 0.0366453 0.56375
0.350249 0.5 -0.6375 0.813186 0.0170575 0.561254
0.350249 0.5 0.6375 0.815638 0.0160524 0.600525
0.411736 0.5 0.6 0.81292 0.0191629 0.604334
0.411736 0.5 -0.6 0.809959 0.0200354 0.559288
0.624316 0.5 0.375 0.7947 0.0328669 0.609578
0.624316 0.5 -0.375 0.791609 0.0328424 0.558441
0.715434 0.5 0.15 0.779436 0.0407228 0.596861
0.715434 0.5 -0.15 0.778101 0.0404817 0.57081
0.467897 0.5 0.5625 0.810048 0.0221989 0.607561
0.467897 0.5 -0.5625 0.806684 0.0229439 0.557791
0.288069 0.5 0.675 0.817199 0.0130836 0.59629
0.288069 0.5 -0.675 0.815358 0.0141144 0.563067
0.523432 0.5 0.525 0.806036 0.0254735 0.610247
0.523432 0.5 -0.525 0.802443 0.0259806 0.556228
0 0.5 -0.743821 0.819152 0 0.573576
0 0.5 0.743821 0.819152 0 0.573576
0.0124865 0.5 -0.743821 0.819142 0.000796852 0.573063
0.0124865 0.5 0.743821 0.819177 0.000698328 0.57477
0.219992 0.5 0.7125 0.818609 0.0100262 0.59149
0.219992 0.5 -0.7125 0.81749 0.011068 0.565353
0.715434 0.5 0.225 0.780936 0.0403147 0.603154
0.715434 0.5 -0.225 0.778941 0.039964 0.564601
0 0.5 0.75 0.819152 0 0.573576
0 0.5 -0.75 0.819152 0 0.573576
0.67013 0.5 0.3375 0.789202 0.0362119 0.609749
0.67013 0.5 -0.3375 0.786261 0.035987 0.558457
0.574157 0.5 0.4875 0.801886 0.0286687 0.612339
0.574157 0.5 -0.4875 0.798149 0.0289622 0.55514
0 0.5 -0.756179 0.819152 0 0.573576
0 0.5 0.756179 0.819152 0 0.573576
0.0124865 0.5 0.756179 0.819184 0.000671897 0.574794
0.0124865 0.5 -0.756179 0.819147 0.000777521 0.57299
0.756813 0.5 0.0375 0.772261 0.0440966 0.587098
0.756813 0.5 -0.0375 0.771925 0.0440039 0.579945
0.151149 0.5 0.75 0.81901 0.00708654 0.586478
0.151149 0.5 -0.75 0.818307 0.00795585 0.567455
0.756813 0.5 0.1125 0.773152 0.043979 0.594228
0.756813 0.5 -0.1125 0.772145 0.0437043 0.572884
0.624316 0.5 -0.45 0.792995 0.0321066 0.554104
0.624316 0.5 0.45 0.796681 0.0320986 0.613795
0.715434 0.5 0.3 0.782855 0.039729 0.609153
0.715434 0.5 -0.3 0.780204 0.0392844 0.558693
0.756813 0.5 0.1875 0.774575 0.0436536 0.60121
0.756813 0.5 -0.1875 0.772899 0.0432064 0.56603
0.67013 0.5 -0.4125 0.787781 0.0352044 0.553558
0.67013 0.5 0.4125 0.791362 0.0354407 0.614644
0.411736 0.5 0.675 0.813946 0.0185175 0.605891
0.411736 0.5 -0.675 0.810691 0.0195264 0.55715
0.467897 0.5 0.6375 0.811347 0.0214793 0.609585
0.467897 0.5 -0.6375 0.807607 0.0223566 0.555242
0.075776 0.5 0.7875 0.819321 0.00406612 0.580948
0.075776 0.5 -0.7875 0.819096 0.00471391 0.570041
0.350249 0.5 0.7125 0.816363 0.015496 0.601645
0.350249 0.5 -0.7125 0.8137 0.0166383 0.559497
0.523432 0.5 0.6 0.807646 0.0246854 0.612815
0.523432 0.5 -0.6 0.803603 0.0253059 0.553249
0.797732 0.5 3.20924e-17 0.765739 0.047261 0.583032
0.756813 0.5 0.2625 0.776495 0.0431278 0.60793
0.756814 0.5 -0.2625 0.774147 0.0425235 0.559477
0.797732 0.5 0.075 0.766376 0.0472753 0.590776
0.797732 0.5 -0.075 0.765738 0.0470188 0.575337
0.288069 0.5 0.75 0.8177 0.0126069 0.59706
0.288069 0.5 -0.75 0.81572 0.0137622 0.561679
0.574156 0.5 -0.5625 0.799511 0.0282132 0.551695
0.574156 0.5 0.5625 0.803771 0.0278283 0.615479
0.715434 0.5 0.375 0.785158 0.0389747 0.614776
0.715434 0.5 -0.375 0.781851 0.0384594 0.553177
0.797732 0.5 0.15 0.767636 0.0470602 0.598439
0.797732 0.5 -0.15 0.766361 0.0465557 0.567821
0.624316 0.5 0.525 0.798855 0.0312172 0.617576
0.624316 0.5 -0.525 0.794591 0.0312799 0.550153
0.219992 0.5 0.7875 0.818871 0.00964123 0.591946
0.219992 0.5 -0.7875 0.81768 0.0107924 0.564311
0 0.5 -0.818821 0.819152 0 0.573576
0 0.5 0.818821 0.819152 0 0.573576
0.0124865 0.5 -0.818821 0.819147 0.000777521 0.57299
0.0124865 0.5 0.818821 0.819184 0.000671897 0.574794
0 0.5 0.825 0.819152 0 0.573576
0 0.5 -0.825 0.819152 0 0.573576
0.756813 0.5 -0.3375 0.775859 0.0416741 0.55331
0.756813 0.5 0.3375 0.778875 0.0424104 0.614284
0.67013 0.5 0.4875 0.793776 0.0345358 0.619091
0.67013 0.5 -0.4875 0.789566 0.0343144 0.549063
0.797732 0.5 0.225 0.76949 0.0466202 0.605889
0.797732 0.5 -0.225 0.767566 0.045884 0.560603
0 0.5 -0.831179 0.819152 0 0.573576
0 0.5 0.831179 0.819152 0 0.573576
0.0124865 0.5 0.831179 0.81919 0.000645396 0.574808
0.0124865 0.5 -0.831179 0.819153 0.000757191 0.572926
0.835106 0.5 -0.0375 0.7595 0.0502351 0.578399
0.835106 0.5 0.0375 0.759803 0.0503996 0.586725
0.151149 0.5 0.825 0.819165 0.00680677 0.586727
0.151149 0.5 -0.825 0.818422 0.00775061 0.566749
0.835106 0.5 0.1125 0.760816 0.0503152 0.595045
0.835106 0.5 -0.1125 0.759911 0.049827 0.570208
0.715434 0.5 0.45 0.787794 0.0380636 0.619939
0.715434 0.5 -0.45 0.783831 0.0375067 0.548114
0.797732 0.5 0.3 0.771893 0.0459642 0.613002
0.797732 0.5 -0.3 0.769311 0.0450211 0.553778
0.467897 0.5 0.7125 0.812681 0.0207098 0.611249
0.467897 0.5 -0.7125 0.808597 0.0217269 0.552981
0.523432 0.5 0.675 0.809321 0.0238319 0.614979
0.523432 0.5 -0.675 0.804856 0.0245791 0.5506
0.411736 0.5 0.75 0.814988 0.017835 0.607132
0.411736 0.5 -0.75 0.811469 0.0189831 0.555257
0.835106 0.5 0.1875 0.762522 0.0499822 0.603214
0.835106 0.5 -0.1875 0.761003 0.0491857 0.562298
0.574156 0.5 0.6375 0.805755 0.0269063 0.618176
0.574156 0.5 -0.6375 0.801 0.0274005 0.548621
0.350249 0.5 -0.7875 0.814244 0.0161916 0.557941
0.350249 0.5 0.7875 0.817091 0.0149148 0.602499
0.756813 0.5 -0.4125 0.777981 0.0406747 0.547639
0.756814 0.5 0.4125 0.781669 0.0415131 0.620192
0.075776 0.5 -0.8625 0.819128 0.00458964 0.569653
0.075776 0.5 0.8625 0.819358 0.00390415 0.58103
0.624316 0.5 0.6 0.801176 0.0302358 0.620877
0.624316 0.5 -0.6 0.796354 0.030376 0.546628
0.872064 0.5 4.32235e-17 0.753154 0.0534467 0.581915
0.288069 0.5 0.825 0.8182 0.0121136 0.597615
0.288069 0.5 -0.825 0.816099 0.0133885 0.560454
0.67013 0.5 0.5625 0.796392 0.0335117 0.623028
0.67013 0.5 -0.5625 0.791569 0.0333322 0.545042
0.872064 0.5 0.075 0.753832 0.0535168 0.590848
0.872064 0.5 -0.075 0.753273 0.0531115 0.573064
0.835106 0.5 0.2625 0.764873 0.0494082 0.611094
0.835106 0.5 -0.2625 0.762711 0.0483282 0.554783
0.797732 0.5 0.375 0.774796 0.0451033 0.619675
0.797732 0.5 -0.375 0.771551 0.0439861 0.547443
0.872064 0.5 0.15 0.755294 0.0533185 0.599704
0.872064 0.5 -0.15 0.754178 0.05252 0.564458
0.715434 0.5 0.525 0.790699 0.0370107 0.624572
0.715434 0.5 -0.525 0.786087 0.0364449 0.543553
0.219992 0.5 0.8625 0.819138 0.0092466 0.592241
0.219993 0.5 -0.8625 0.817878 0.0105004 0.563394
0 0.5 -0.893821 0.819152 0 0.573576
0 0.5 0.893821 0.819152 0 0.573576
0.0124865 0.5 0.893821 0.81919 0.000645396 0.574808
0.0124865 0.5 -0.893821 0.819153 0.000757191 0.572926
0 0.5 0.9 0.819152 0 0.573576
0 0.5 -0.9 0.819152 0 0.573576
0.756813 0.5 0.4875 0.784811 0.0404498 0.625547
0.756813 0.5 -0.4875 0.780445 0.0395474 0.542489
0.872064 0.5 0.225 0.757506 0.0528552 0.608333
0.872064 0.5 -0.225 0.755805 0.0516868 0.556243
0.835106 0.5 0.3375 0.767812 0.0486047 0.618544
0.835106 0.5 -0.3375 0.765002 0.047275 0.547758
0 0.5 0.906179 0.819152 0 0.573576
0 0.5 -0.906179 0.819152 0 0.573576
0.0124865 0.5 0.906179 0.819195 0.000619511 0.574811
0.0124865 0.5 -0.906179 0.819158 0.000736139 0.572871
0.90582 0.5 -0.0375 0.74677 0.0563149 0.576536
0.905821 0.5 0.0375 0.74703 0.0565573 0.586049
0.151149 0.5 0.9 0.819321 0.00652335 0.586866
0.90582 0.5 0.1125 0.748163 0.0565132 0.595575
0.90582 0.5 -0.1125 0.747392 0.0557931 0.567205
0.151149 0.5 -0.901373 0.818541 0.00755011 0.566089
0.523432 0.5 0.75 0.811026 0.0229252 0.616726
0.523432 0.5 -0.75 0.806172 0.0238102 0.548291
0.574157 0.5 0.7125 0.807798 0.025916 0.62041
0.574156 0.5 -0.7125 0.802578 0.0265364 0.545936
0.797732 0.5 0.45 0.778137 0.0440515 0.625806
0.797732 0.5 -0.45 0.774216 0.0428009 0.541675
0.467897 0.5 0.7875 0.814023 0.0199012 0.612547
0.467897 0.5 -0.7875 0.809631 0.0210629 0.551009
0.624316 0.5 0.675 0.803594 0.0291687 0.62367
0.624316 0.5 -0.675 0.798239 0.0294094 0.54354
0.411736 0.5 0.825 0.816023 0.0171248 0.608057
0.411736 0.5 -0.825 0.812275 0.0184122 0.55361
0.872064 0.5 0.3 0.760411 0.0521365 0.616584
0.872064 0.5 -0.3 0.758087 0.0506317 0.548515
0.67013 0.5 0.6375 0.799151 0.0323835 0.626419
0.67013 0.5 -0.6375 0.793734 0.0322739 0.541506
0.90582 0.5 0.1875 0.75015 0.0561813 0.604941
0.90582 0.5 -0.1875 0.748872 0.0550033 0.558255
0.350249 0.5 -0.8625 0.814807 0.0157227 0.556588
0.350249 0.5 0.8625 0.817803 0.0143157 0.603092
0.835106 0.5 0.4125 0.771286 0.0475847 0.625479
0.835106 0.5 -0.4125 0.767813 0.0460473 0.541314
0.715434 0.5 0.6 0.793808 0.0358329 0.628627
0.715434 0.5 -0.6 0.788558 0.0352919 0.539536
0.939201 0.5 4.40909e-17 0.740109 0.0596601 0.58053
0.075776 0.5 -0.9375 0.819162 0.00446067 0.569315
0.075776 0.5 0.9375 0.819388 0.00374453 0.581054
0.939201 0.5 0.075 0.740796 0.0597913 0.59069
0.939201 0.5 -0.075 0.740397 0.0592243 0.570484
0.756814 0.5 0.5625 0.788226 0.0392395 0.630303
0.756814 0.5 -0.5625 0.783186 0.0383121 0.537938
0.905821 0.5 0.2625 0.752943 0.0555681 0.613997
0.905821 0.5 -0.2625 0.751085 0.0539661 0.549804
0.288069 0.5 0.9 0.81869 0.0116075 0.597962
0.288069 0.5 -0.901373 0.81649 0.0130041 0.559335
0.872064 0.5 0.375 0.763943 0.051176 0.624323
0.872064 0.5 -0.375 0.760979 0.0493775 0.541362
0.939201 0.5 -0.15 0.74166 0.0584939 0.560762
0.939201 0.5 0.15 0.742441 0.059613 0.600779
0.797732 0.5 0.525 0.781832 0.0428272 0.63131
0.797732 0.5 -0.525 0.777228 0.0414885 0.536538
0.219993 0.5 -0.9375 0.818081 0.0101957 0.5626
0.219992 0.5 0.9375 0.819409 0.00884534 0.592385
0.939201 0.5 0.225 0.745008 0.0591274 0.610622
0.939201 0.5 -0.225 0.743786 0.0574859 0.551541
0.90582 0.5 0.3375 0.756461 0.0546873 0.62257
0.90582 0.5 -0.3375 0.75398 0.0527017 0.541917
0.835106 0.5 -0.4875 0.771046 0.0446722 0.535536
0.835107 0.5 0.4875 0.775209 0.0463652 0.631764
0 0.5 0.968821 0.819152 0 0.573576
0 0.5 -0.968821 0.819152 0 0.573576
0.0124865 0.5 0.968821 0.819195 0.000619511 0.574811
0.0124865 0.5 -0.968821 0.819158 0.000736139 0.572871
0.969689 0.5 0.0375 0.733616 0.0629155 0.585175
0.969689 0.5 -0.0375 0.733468 0.0625881 0.574411
0.574156 0.5 0.7875 0.809859 0.0248713 0.622173
0.574156 0.5 -0.7875 0.80421 0.0256328 0.543638
0 0.5 0.975 0.819152 0 0.573576
0 0.5 -0.975 0.819152 0 0.573576
0.624316 0.5 0.75 0.806061 0.0280311 0.625941
0.624316 0.5 -0.75 0.8002 0.028394 0.540895
0.969689 0.5 0.1125 0.734823 0.0629128 0.59597
0.96969 0.5 -0.1125 0.734397 0.0619402 0.563875
0.523432 0.5 0.825 0.812727 0.0219779 0.618053
0.523432 0.5 -0.825 0.807524 0.0230091 0.546319
0.67013 0.5 0.7125 0.801997 0.0311677 0.629238
0.67013 0.5 -0.7125 0.796007 0.0311562 0.53847
0 0.5 -0.981179 0.819152 0 0.573576
0 0.5 0.981179 0.819152 0 0.573576
0.467897 0.5 0.8625 0.815345 0.0190642 0.61348
0.467897 0.5 -0.8625 0.810688 0.0203727 0.549325
0.0124865 0.5 0.981179 0.819197 0.000594374 0.574806
0.0124865 0.5 -0.981179 0.819164 0.000714571 0.572823
0.872064 0.5 0.45 0.768024 0.0499897 0.631443
0.872064 0.5 -0.45 0.764398 0.0479511 0.534897
0.715434 0.5 0.675 0.79705 0.0345476 0.632065
0.715434 0.5 -0.675 0.791174 0.0340666 0.536073
0.939201 0.5 0.3 0.74843 0.0583448 0.620043
0.939201 0.5 -0.3 0.746641 0.0562221 0.542888
0.151149 0.5 0.975 0.819472 0.00623992 0.586901
0.151149 0.5 -0.975 0.818664 0.00731213 0.565602
0.969689 0.5 0.1875 0.737069 0.0625781 0.606598
0.969689 0.5 -0.1875 0.736404 0.0609834 0.55384
0.756814 0.5 0.6375 0.79183 0.0379013 0.634401
0.756814 0.5 -0.6375 0.786122 0.0369896 0.533997
0.411736 0.5 0.9 0.817031 0.0163939 0.608673
0.411736 0.5 -0.901373 0.813107 0.017818 0.552137
0.90582 0.5 0.4125 0.760632 0.0535541 0.63053
0.90582 0.5 -0.4125 0.757525 0.0512395 0.534694
0.797732 0.5 0.6 0.785792 0.0414518 0.636129
0.797732 0.5 -0.6 0.780496 0.0400712 0.532076
1.00005 0.5 1.48897e-17 0.727415 0.0651268 0.579008
0.350249 0.5 -0.9375 0.815377 0.0152372 0.555436
0.350249 0.5 0.9375 0.818485 0.0137001 0.603435
1.00005 0.5 0.0749309 0.728108 0.065317 0.590304
1.00005 0.5 -0.0749309 0.727877 0.0646019 0.567844
0.969689 0.5 0.2625 0.740301 0.0619172 0.616876
0.969689 0.5 -0.2625 0.739189 0.0597422 0.544425
0.835106 0.5 0.5625 0.779474 0.04497 0.637348
0.835106 0.5 -0.5625 0.77462 0.0431722 0.530493
1.00005 0.5 0.149862 0.729934 0.0651663 0.601536
1.00005 0.5 -0.149862 0.729508 0.0637528 0.557081
0.939201 0.5 0.375 0.752619 0.0572809 0.628877
0.939201 0.5 -0.375 0.750234 0.0547301 0.534878
0.075776 0.5 1.0125 0.819405 0.00359006 0.581023
0.075776 0.5 -1.0125 0.819197 0.00432848 0.569027
0.288069 0.5 0.975 0.819167 0.0110926 0.598111
0.288069 0.5 -0.975 0.816881 0.0125944 0.558494
0.872064 0.5 0.525 0.772554 0.0485985 0.63783
0.872064 0.5 -0.525 0.768238 0.0463796 0.529214
1.00005 0.5 0.224793 0.732854 0.0646766 0.612504
1.00005 0.5 -0.224793 0.732137 0.0625993 0.546957
0.96969 0.5 0.3375 0.744428 0.060945 0.626615
0.96969 0.5 -0.3375 0.742697 0.0582382 0.535597
1.0271 0.5 0.0368226 0.720879 0.0682928 0.58404
1.0271 0.5 -0.0368226 0.720794 0.0679042 0.572354
0.90582 0.5 0.4875 0.765359 0.0521881 0.637791
0.90582 0.5 -0.4875 0.761583 0.0496098 0.528304
1.0271 0.5 0.110468 0.722174 0.0683354 0.595766
1.0271 0.5 -0.110468 0.721936 0.0671799 0.56091
0.67013 0.5 -0.7875 0.798332 0.0299947 0.535925
0.67013 0.5 0.7875 0.804873 0.0298815 0.631476
0.624316 0.5 0.825 0.808528 0.0268393 0.627684
0.624316 0.5 -0.825 0.802192 0.0273435 0.538685
0.219992 0.5 -1.0125 0.818285 0.0098816 0.561928
0.219993 0.5 1.0125 0.819677 0.00844371 0.592381
0.574156 0.5 0.8625 0.811897 0.023787 0.623466
0.574156 0.5 -0.8625 0.805858 0.024701 0.54172
0.715434 0.5 0.75 0.80036 0.0331733 0.634869
0.715434 0.5 -0.75 0.793869 0.0327873 0.533165
0.756813 0.5 -0.7125 0.789176 0.0356007 0.530675
0.756814 0.5 0.7125 0.79555 0.0364541 0.637815
0.523432 0.5 0.9 0.814393 0.0210017 0.618966
0.939201 0.5 0.45 0.75748 0.055955 0.637003
0.939201 0.5 -0.45 0.754497 0.0530426 0.527698
1.04168 0.5 0 0.717132 0.0696443 0.57773
0.523432 0.5 -0.901373 0.808909 0.0221741 0.544597
1.0271 0.5 0.184113 0.724652 0.06803 0.607334
1.0271 0.5 -0.184113 0.724299 0.0661309 0.550077
0 0.5 1.04382 0.819152 0 0.573576
0 0.5 -1.04382 0.819152 0 0.573576
0.0124865 0.5 1.04382 0.819197 0.000594374 0.574806
0.0124865 0.5 -1.04382 0.819164 0.000714571 0.572823
1.00005 0.5 0.299723 0.736789 0.063858 0.623015
1.00005 0.5 -0.299723 0.735563 0.061161 0.537445
1.04168 0.5 0.0729162 0.717802 0.0698741 0.589664
1.04168 0.5 -0.0729162 0.7177 0.0690708 0.565927
0.797732 0.5 0.675 0.789928 0.0399464 0.640214
0.797732 0.5 -0.675 0.783926 0.0385728 0.528297
0.467897 0.5 -0.9375 0.811747 0.0196643 0.547922
0.467897 0.5 0.9375 0.816625 0.0182071 0.614055
0 0.5 1.05 0.819152 0 0.573576
0 0.5 -1.05 0.819152 0 0.573576
0.835106 0.5 0.6375 0.783993 0.0434216 0.642153
0.835106 0.5 -0.6375 0.778406 0.0415739 0.526198
1.04168 0.5 0.145832 0.719693 0.0697537 0.601545
1.04168 0.5 -0.145832 0.719519 0.0681645 0.554563
0.969689 0.5 -0.4125 0.747098 0.0565103 0.527524
0.96969 0.5 0.4125 0.749346 0.0596805 0.635643
0 0.5 1.05618 0.819152 0 0.573576
0 0.5 -1.05618 0.819152 0 0.573576
0.0124865 0.5 1.05618 0.819201 0.000570177 0.574793
0.0124865 0.5 -1.05618 0.81917 0.000692786 0.572784
1.05695 0.5 -0.0360764 0.713437 0.0709528 0.571156
1.05695 0.5 0.0360764 0.713453 0.0713735 0.583275
0.411736 0.5 0.975 0.818002 0.0156491 0.608989
0.411736 0.5 -0.975 0.813912 0.0172143 0.551042
0.872064 0.5 0.6 0.777412 0.0470292 0.643406
0.872064 0.5 -0.6 0.772377 0.0446907 0.52435
1.0271 0.5 0.257759 0.728253 0.0673823 0.618539
1.0271 0.5 -0.257759 0.727551 0.0647848 0.539981
0.151149 0.5 -1.05 0.818786 0.0070841 0.565158
0.151149 0.5 1.05 0.819615 0.00595994 0.586838
1.05695 0.5 0.108229 0.714723 0.0714425 0.595443
1.05695 0.5 -0.108229 0.714682 0.0701927 0.559261
1.04168 0.5 0.218749 0.722762 0.0692849 0.613168
1.04168 0.5 -0.218749 0.722424 0.0669438 0.543933
0.90582 0.5 0.5625 0.770529 0.0506115 0.644176
0.90582 0.5 -0.5625 0.766048 0.04784 0.522802
1.00005 0.5 0.374654 0.741633 0.0627275 0.632879
1.00005 0.5 -0.374654 0.739887 0.0594701 0.528601
0.350249 0.5 1.0125 0.819149 0.0130736 0.603538
0.350249 0.5 -1.0125 0.815945 0.0147402 0.554478
1.05695 0.5 0.180382 0.717224 0.0711584 0.607464
1.05695 0.5 -0.180382 0.717181 0.0691032 0.54804
0.939201 0.5 0.525 0.762896 0.0543893 0.644287
0.939201 0.5 -0.525 0.759259 0.0511912 0.521488
1.0271 0.5 -0.331404 0.731641 0.0631508 0.530409
1.0271 0.5 0.331404 0.732879 0.0664052 0.629193
1.08112 0.5 3.20924e-17 0.706963 0.0737854 0.576381
1.04168 0.5 0.291665 0.726932 0.0684769 0.624334
1.04168 0.5 -0.291665 0.726209 0.0654248 0.533931
1.08112 0.5 0.0709442 0.707574 0.0740528 0.588889
1.08112 0.5 -0.0709442 0.707644 0.0731698 0.564007
0.96969 0.5 0.4875 0.754945 0.0581471 0.643863
0.96969 0.5 -0.4875 0.752114 0.0545907 0.520517
1.05695 0.5 0.252535 0.720893 0.0705265 0.619123
1.05695 0.5 -0.252535 0.720647 0.0677081 0.537651
0.288069 0.5 1.05 0.819629 0.0105731 0.598074
0.288069 0.5 -1.05 0.81727 0.0121829 0.557751
0.075776 0.5 -1.0875 0.819231 0.00419488 0.568787
0.075776 0.5 1.0875 0.81943 0.0034406 0.580944
1.08112 0.5 0.141888 0.709466 0.0739649 0.601357
1.08112 0.5 -0.141888 0.70961 0.0722176 0.552092
0.715434 0.5 0.825 0.803673 0.0317299 0.637033
0.715434 0.5 -0.825 0.796582 0.0314716 0.530795
0.756814 0.5 0.7875 0.799307 0.0349189 0.640534
0.756814 0.5 -0.7875 0.79227 0.0341659 0.527957
0.67013 0.5 0.8625 0.807725 0.0285434 0.633135
0.67013 0.5 -0.8625 0.800658 0.0288041 0.533855
0.797732 0.5 0.75 0.794153 0.038333 0.643546
0.797732 0.5 -0.75 0.787431 0.0370165 0.525191
0.624316 0.5 0.9 0.810952 0.0256089 0.628908
1.00005 0.5 0.449585 0.747267 0.0613064 0.641948
1.00005 0.5 -0.449585 0.745026 0.0575635 0.520765
0.624316 0.5 -0.901373 0.804221 0.0262499 0.536809
0.835106 0.5 0.7125 0.788655 0.0417447 0.646148
0.835106 0.5 -0.7125 0.782312 0.0399035 0.52265
0.574156 0.5 -0.9375 0.807493 0.0237515 0.540164
0.574156 0.5 0.9375 0.813882 0.0226756 0.624299
1.10076 0.5 0.0349809 0.701578 0.0761527 0.582075
1.10076 0.5 -0.0349809 0.701655 0.0756887 0.569308
1.08112 0.5 0.212832 0.712598 0.0735237 0.613576
1.08112 0.5 -0.212832 0.712737 0.0709426 0.54098
0.872064 0.5 0.675 0.78248 0.0453071 0.648131
0.872064 0.5 -0.675 0.776684 0.0429131 0.520305
1.04168 0.5 -0.364581 0.73097 0.0636394 0.524567
1.04168 0.5 0.364581 0.732091 0.0673459 0.634851
1.0271 0.5 -0.405049 0.736779 0.0612803 0.521657