0 	0.000147014 	1.82753e-08 	-0.00148344
0.00184055 	0.000177906 	3.58864e-07 	-0.00130633
0.00368111 	0.000213174 	7.65937e-07 	-0.00130589
0.00558849 	0.00050966 	4.61344e-06 	-0.00130521
0.00749587 	0.000838222 	8.84628e-06 	-0.00130408
0.00947249 	0.00140177 	2.05582e-05 	-0.00130304
0.0114491 	0.00200567 	3.30712e-05 	-0.00130131
0.0134975 	0.00248295 	5.11783e-05 	-0.00129992
0.0155459 	0.00297797 	7.01222e-05 	-0.00129761
0.0176687 	0.00325469 	9.14139e-05 	-0.00129614
0.0197915 	0.00353999 	0.000113644 	-0.00129368
0.0219913 	0.00368757 	0.00013758 	-0.00129238
0.0241911 	0.00384228 	0.000162817 	-0.0012902
0.0264709 	0.00391894 	0.000188809 	-0.00128914
0.0287506 	0.00400332 	0.000216328 	-0.00128738
0.0311131 	0.00404629 	0.000243467 	-0.00128659
0.0334755 	0.00409709 	0.000271961 	-0.00128526
0.0359238 	0.00412647 	0.000299787 	-0.00128473
0.038372 	0.00416259 	0.000328586 	-0.00128385
0.0409092 	0.00418707 	0.000357066 	-0.00128364
0.0434463 	0.00421664 	0.000386224 	-0.00128328
0.0460755 	0.0042394 	0.000415229 	-0.00128336
0.0487048 	0.00426544 	0.000444692 	-0.00128348
0.0514296 	0.00428754 	0.000474062 	-0.00128381
0.0541543 	0.00431109 	0.00050372 	-0.00128436
0.0541543 	0.00431109 	0.00050372 	-0.00128436
0.0569779 	0.00433273 	0.000533321 	-0.00128494
0.0598016 	0.00435407 	0.000563065 	-0.00128591
0.0627277 	0.00437501 	0.000592826 	-0.00128673
0.0656539 	0.00439407 	0.000622598 	-0.0012881
0.0686863 	0.00441387 	0.000652541 	-0.00128913
0.0717187 	0.00443044 	0.000682379 	-0.00129085
0.0748612 	0.00444861 	0.000712622 	-0.00129206
0.0780037 	0.00446243 	0.000742634 	-0.0012941
0.0812603 	0.00447855 	0.000773477 	-0.0012955
0.0845169 	0.00448942 	0.000803917 	-0.00129785
0.0878917 	0.00450313 	0.000859845 	-0.00129945
0.0912666 	0.00451091 	0.000891258 	-0.00130212
0.0947639 	0.00452199 	0.000947122 	-0.00130389
0.0982613 	0.00452659 	0.000980991 	-0.00130686
0.101886 	0.0045349 	0.0010163 	-0.00130881
0.10551 	0.00453634 	0.00105275 	-0.00131206
0.109266 	0.00454182 	0.00109331 	-0.00131416
0.113022 	0.00454016 	0.00113143 	-0.00131767
0.116914 	0.00454283 	0.0011758 	-0.00131991
0.120806 	0.00453816 	0.00121874 	-0.00132365
0.12484 	0.00453811 	0.0012603 	-0.00132599
0.128874 	0.00453055 	0.00129993 	-0.00132992
0.133054 	0.00452786 	0.00133939 	-0.00133235
0.137234 	0.00451754 	0.00137731 	-0.00133643
0.141565 	0.00451234 	0.00141403 	-0.00133894
0.145897 	0.0044994 	0.00144896 	-0.00134313
0.150386 	0.00449183 	0.00147906 	-0.0013457
0.154876 	0.00447641 	0.00150544 	-0.00134999
0.159528 	0.00446665 	0.00150748 	-0.00135259
0.16418 	0.00444893 	0.00153404 	-0.00135695
0.169001 	0.00443717 	0.00153278 	-0.00135957
0.173822 	0.00441735 	0.00156007 	-0.00136395
0.178818 	0.0044038 	0.00158765 	-0.00136654
0.183814 	0.0043821 	0.00161875 	-0.00137089
0.188991 	0.00436692 	0.00165232 	-0.00137345
0.194169 	0.00434358 	0.00168827 	-0.00137773
0.199534 	0.00432696 	0.00172454 	-0.0013802
0.2049 	0.00430226 	0.0017633 	-0.00138435
0.21046 	0.00428445 	0.00180211 	-0.00138672
0.21602 	0.00425874 	0.00184376 	-0.00139069
0.221782 	0.0042401 	0.00188562 	-0.00139295
0.227544 	0.00421379 	0.00193077 	-0.00139673
0.233515 	0.00419461 	0.00197602 	-0.00139886
0.239487 	0.00416807 	0.00202518 	-0.00140242
0.245675 	0.00414864 	0.00207428 	-0.00140439
0.251863 	0.00412226 	0.00212803 	-0.0014077
0.258275 	0.00410286 	0.00218157 	-0.00140949
0.264688 	0.00407705 	0.00224066 	-0.00141248
0.271334 	0.00405798 	0.00229929 	-0.00141401
0.27798 	0.00403316 	0.00236457 	-0.00141658
0.284866 	0.00401474 	0.002429 	-0.00141777
0.291753 	0.00399132 	0.0025014 	-0.00141976
0.29889 	0.0039738 	0.00257248 	-0.00142049
0.306027 	0.0039521 	0.00265304 	-0.00142172
0.313423 	0.00393572 	0.00273178 	-0.0014219
0.320819 	0.003916 	0.00282165 	-0.0014222
0.328483 	0.00390097 	0.00290913 	-0.0014218
0.336148 	0.00388337 	0.00300946 	-0.00142112
0.344091 	0.00386985 	0.00310676 	-0.00142011
0.352034 	0.00385446 	0.00321869 	-0.00141843
0.360265 	0.00384257 	0.00332685 	-0.00141679
0.368496 	0.0038294 	0.00345139 	-0.00141404
0.377026 	0.00381918 	0.00357149 	-0.00141172
0.385557 	0.00380818 	0.00370969 	-0.00140783
0.385557 	0.00380818 	0.00370969 	-0.00140783
0.394397 	0.00379965 	0.00384286 	-0.00140481
0.403236 	0.00379074 	0.00399581 	-0.00139975
0.412397 	0.00378387 	0.00414323 	-0.00139603
0.421557 	0.00377693 	0.00431202 	-0.00138981
0.431051 	0.00377166 	0.00447489 	-0.00138542
0.440544 	0.00376657 	0.00466061 	-0.00137806
0.450382 	0.00376282 	0.00484012 	-0.00137303
0.46022 	0.00375943 	0.00504385 	-0.00136461
0.470415 	0.00375712 	0.00524112 	-0.00135899
0.48061 	0.00375529 	0.00546382 	-0.00134958
0.482199 	0.00375502 	0.00549045 	-0.00134958
0.483788 	0.00375474 	0.00551708 	-0.00134958
0.492764 	0.00375424 	0.00571655 	-0.00134188
0.501741 	0.00375388 	0.0059227 	-0.00133313
0.51269 	0.00375406 	0.00615918 	-0.0013265
0.523639 	0.00375489 	0.00642268 	-0.00131539
0.533279 	0.00375577 	0.00663759 	-0.00131008
0.542919 	0.00375739 	0.00687982 	-0.0013
0.544626 	0.00375768 	0.00692269 	-0.00129821
0.546332 	0.00375796 	0.00696556 	-0.00129643
0.55809 	0.00375993 	0.00724568 	-0.00128893
0.569849 	0.00376274 	0.00755305 	-0.00127637
0.582034 	0.00376531 	0.00785646 	-0.00126852
0.594219 	0.00376888 	0.00818663 	-0.00125539
0.606847 	0.00377189 	0.00851435 	-0.00124729
0.619475 	0.00377605 	0.0088678 	-0.00123372
0.632561 	0.00377939 	0.00922081 	-0.00122547
0.645647 	0.00378404 	0.00959796 	-0.00121164
0.659208 	0.00378764 	0.00997665 	-0.00120341
0.67277 	0.00379272 	0.0103774 	-0.00118962
0.686823 	0.00379659 	0.0107818 	-0.00118167
0.700877 	0.00380206 	0.0112058 	-0.00116837
0.715441 	0.00380621 	0.0116361 	-0.00116097
0.730005 	0.00381206 	0.012083 	-0.00114857
0.745097 	0.00381654 	0.0125392 	-0.00114195
0.76019 	0.00382277 	0.0130084 	-0.00113087
0.775831 	0.00382765 	0.0134896 	-0.00112523
0.791472 	0.00383427 	0.0139798 	-0.00111577
0.80768 	0.00383958 	0.0144836 	-0.00111105
0.823889 	0.00384659 	0.0149924 	-0.00110315
0.840686 	0.00385235 	0.015515 	-0.00109926
0.857483 	0.00385974 	0.0160383 	-0.00109276
0.87489 	0.00386595 	0.0165724 	-0.00108963
0.892297 	0.00387365 	0.0171005 	-0.00108438
0.910336 	0.00388027 	0.0176323 	-0.00108176
0.928375 	0.00388822 	0.0181453 	-0.00107737
0.947068 	0.00389518 	0.0186536 	-0.00107474
0.965762 	0.00390329 	0.0191193 	-0.00107033
0.985136 	0.00391051 	0.0195905 	-0.00106728
1.00451 	0.00391871 	0.0199898 	-0.00106216
1.02458 	0.00392611 	0.0204392 	-0.00105886
1.04466 	0.00393432 	0.020801 	-0.00105333
1.06546 	0.00394178 	0.0212475 	-0.00105036
1.08627 	0.00394989 	0.0216071 	-0.0010454
1.10783 	0.00395728 	0.02205 	-0.00104318
1.12939 	0.00396516 	0.02241 	-0.00103946
1.15173 	0.00397234 	0.0228436 	-0.00103811
1.17408 	0.00397985 	0.023198 	-0.00103586
1.19723 	0.00398665 	0.0236172 	-0.00103546
1.22038 	0.00399364 	0.0239614 	-0.00103478
1.24437 	0.0039999 	0.0243626 	-0.00103535
1.26837 	0.00400622 	0.0246936 	-0.00103631
1.29323 	0.00401178 	0.0250723 	-0.00103785
1.3181 	0.00401729 	0.0253854 	-0.00104044
1.34387 	0.00402198 	0.0257383 	-0.00104305
1.36964 	0.00402652 	0.0260302 	-0.00104742
1.39634 	0.00403016 	0.0263657 	-0.0010514
1.42305 	0.00403356 	0.026652 	-0.00105808
1.42305 	0.00403356 	0.026652 	-0.00105808
1.45072 	0.00403601 	0.0269838 	-0.00106375
1.45073 	0.00403601 	0.0269838 	-0.00106375
1.4784 	0.00403813 	0.0272881 	-0.00107325
1.4784 	0.00403813 	0.0272881 	-0.00107325
1.50708 	0.00403928 	0.0276238 	-0.00108086
1.53576 	0.00404 	0.0279591 	-0.0010936
1.56548 	0.00403976 	0.0283019 	-0.00110331
1.5952 	0.00403904 	0.0286735 	-0.00111957
1.626 	0.00403734 	0.0290213 	-0.00113132
1.65679 	0.00403514 	0.0294254 	-0.00115099
1.65679 	0.00403514 	0.0294254 	-0.00115099
1.66681 	0.00403434 	0.0294976 	-0.00115099
1.67683 	0.00403328 	0.0296117 	-0.00115611
1.69873 	0.00403075 	0.0298972 	-0.0011717
1.72063 	0.00402821 	0.0301827 	-0.00118729
1.74998 	0.004024 	0.0304551 	-0.00119951
1.77934 	0.00401939 	0.0308079 	-0.00122188
1.78306 	0.00401881 	0.0308526 	-0.00122472
1.78678 	0.00401822 	0.0308974 	-0.00122756
1.79754 	0.00401639 	0.0309504 	-0.00122756
1.8083 	0.00401437 	0.0310456 	-0.00123367
1.83181 	0.00400979 	0.03129 	-0.00125231
1.85533 	0.00400521 	0.0315345 	-0.00127095
1.88686 	0.00399827 	0.0317407 	-0.00128495
1.91839 	0.00399108 	0.0320118 	-0.00131058
1.92238 	0.00399016 	0.0320461 	-0.00131383
1.92638 	0.00398925 	0.0320805 	-0.00131708
1.96319 	0.00398003 	0.0322816 	-0.00133507
2 	0.00397068 	0.032535 	-0.00136521
