# wallShearStress  FACE_DATA 60650
# x  y  z  wallShearStress_x  wallShearStress_y  wallShearStress_z
8.75721 0 0.345731 -0.000136535 -9.07289e-06 0.000394582
8.72516 0 0.336919 -0.000170899 -1.19452e-05 0.000275064
8.69439 0 0.328456 -0.000186065 -8.18885e-06 0.000202222
8.66483 0 0.320329 -0.000185766 -7.14736e-06 0.000136226
8.63646 0 0.312526 -0.000223623 -8.95482e-06 6.33707e-05
8.6092 0 0.305031 -0.000284214 -1.14318e-05 -6.82561e-06
8.58303 0 0.297833 -0.000334249 -7.0284e-06 -6.65932e-05
8.82531 0 0.430728 0.000302846 -1.05121e-05 0.00101074
8.79057 0 0.419435 0.00020947 -1.26445e-05 0.000888894
8.75721 0 0.408591 0.000140193 -1.05571e-05 0.000774006
8.72516 0 0.398176 8.85992e-05 -1.02369e-05 0.000653909
8.69439 0 0.388175 4.37238e-05 -9.97978e-06 0.000530677
8.66483 0 0.378571 -2.79434e-06 -1.04408e-05 0.000413484
8.63646 0 0.369348 -6.0221e-05 -9.54345e-06 0.000310155
8.6092 0 0.360491 -0.000122186 -9.65362e-06 0.000204534
8.58303 0 0.351985 -0.000193734 -9.63806e-06 0.000104328
8.5579 0 0.343817 -0.000249377 -9.03325e-06 5.90896e-06
8.53376 0 0.335973 -0.000298472 -4.59394e-06 -8.35928e-05
8.51058 0 0.32844 -0.000334149 2.10721e-06 -0.000163304
8.9384 0 0.539403 0.000908322 -8.75912e-06 0.00158711
8.89917 0 0.52469 0.000775898 -1.12042e-05 0.00150257
8.8615 0 0.510562 0.000645842 -8.18358e-06 0.0014178
8.82531 0 0.496994 0.000553661 -7.78678e-06 0.00132027
8.79057 0 0.483964 0.000463314 -8.29014e-06 0.00120083
8.75721 0 0.471451 0.000382958 -8.03186e-06 0.0010723
8.72516 0 0.459434 0.000314013 -7.90396e-06 0.00094096
8.69439 0 0.447895 0.000253182 -8.25141e-06 0.000807881
8.66483 0 0.436813 0.000188095 -9.71167e-06 0.000674566
8.63646 0 0.426171 0.000120254 -9.87223e-06 0.000549196
8.6092 0 0.415951 4.84014e-05 -9.97448e-06 0.000423701
8.58303 0 0.406136 -2.60194e-05 -7.87011e-06 0.000302211
8.5579 0 0.396712 -9.764e-05 -7.76512e-06 0.000178619
8.53376 0 0.387661 -0.000170017 -7.15954e-06 6.50621e-05
8.51058 0 0.378969 -0.000230939 -7.45492e-06 -4.49802e-05
8.48833 0 0.370622 -0.000277964 -1.89167e-06 -0.000139829
8.46695 0 0.362605 -0.000300097 3.39422e-06 -0.000224078
8.9384 0 0.611323 0.00104289 -5.13372e-06 0.00182923
8.89917 0 0.594649 0.000950869 -9.99578e-06 0.00174643
8.8615 0 0.578636 0.000830742 -9.27458e-06 0.00165081
8.82531 0 0.563259 0.000738933 -7.17857e-06 0.00154808
8.79057 0 0.548492 0.000656376 -6.88575e-06 0.00142779
8.75721 0 0.534311 0.000575646 -7.99025e-06 0.00129907
8.72516 0 0.520692 0.000501396 -7.17005e-06 0.00116761
8.69439 0 0.507614 0.000437014 -7.34384e-06 0.00103626
8.66483 0 0.495055 0.000367422 -7.99609e-06 0.00090137
8.63646 0 0.482994 0.000297291 -7.03265e-06 0.00076833
8.6092 0 0.471411 0.00022399 -8.43273e-06 0.000632665
8.58303 0 0.460288 0.00014746 -9.33847e-06 0.000498275
8.5579 0 0.449607 6.87274e-05 -1.01618e-05 0.000361998
8.53376 0 0.439349 -1.26831e-05 -8.11522e-06 0.000227697
8.51058 0 0.429498 -9.20945e-05 -7.28002e-06 9.76776e-05
8.48833 0 0.420038 -0.000166415 -6.78397e-06 -2.46212e-05
8.46695 0 0.410953 -0.000224193 -4.65007e-06 -0.000136508
8.44642 0 0.402229 -0.000260834 1.93744e-06 -0.000233478
8.42671 0 0.393851 -0.000277034 4.11894e-06 -0.000321463
8.9384 0 0.683243 0.00113103 -5.15962e-06 0.00198053
8.89917 0 0.664607 0.00105556 -7.39862e-06 0.00191343
8.8615 0 0.646711 0.000969462 -6.14683e-06 0.00182575
8.82531 0 0.629525 0.000892599 -6.38032e-06 0.00171862
8.79057 0 0.613021 0.000814516 -6.43781e-06 0.00160267
8.75721 0 0.597171 0.00073684 -6.55396e-06 0.00148097
8.72516 0 0.58195 0.000664144 -6.31704e-06 0.00135126
8.69439 0 0.567333 0.000598685 -6.38328e-06 0.00122292
8.66483 0 0.553296 0.000532121 -6.97283e-06 0.00109084
8.63646 0 0.539816 0.000464866 -6.98315e-06 0.000956799
8.6092 0 0.526871 0.000391745 -7.73083e-06 0.000819441
8.58303 0 0.51444 0.000316558 -7.22717e-06 0.000681762
8.5579 0 0.502501 0.000237712 -7.97148e-06 0.000541029
8.53376 0 0.491037 0.000153819 -9.12594e-06 0.000399181
8.51058 0 0.480027 6.73751e-05 -1.00521e-05 0.000257089
8.48833 0 0.469454 -1.92354e-05 -8.00139e-06 0.000118121
8.46695 0 0.4593 -9.93535e-05 -6.19951e-06 -1.4884e-05
8.44642 0 0.44955 -0.00016872 -5.45153e-06 -0.000139724
8.42671 0 0.440186 -0.000212577 -1.38121e-06 -0.000251927
8.40778 0 0.431194 -0.000238059 3.05628e-06 -0.000351755
8.38959 0 0.422558 -0.000242324 3.41561e-06 -0.000437193
8.9384 0 0.755163 0.00117715 -1.0951e-05 0.00213064
8.89917 0 0.734566 0.00110659 -7.08887e-06 0.00205852
8.8615 0 0.714786 0.00104519 -7.69204e-06 0.00196338
8.82531 0 0.69579 0.000981461 -6.94661e-06 0.00186238
8.79057 0 0.677549 0.000919217 -6.52355e-06 0.00175424
8.75721 0 0.660031 0.000859906 -6.18004e-06 0.00163876
8.72516 0 0.643208 0.000795386 -6.5364e-06 0.00151382
8.69439 0 0.627053 0.000732514 -6.31562e-06 0.00138749
8.66483 0 0.611538 0.000670997 -6.49534e-06 0.00125784
8.63646 0 0.596639 0.000609527 -6.43725e-06 0.0011262
8.6092 0 0.582331 0.000542393 -7.15709e-06 0.000990921
8.58303 0 0.568591 0.000472368 -7.24411e-06 0.000853409
8.5579 0 0.555397 0.000397634 -7.7918e-06 0.000712546
8.53376 0 0.542725 0.000318791 -7.6547e-06 0.000569293
8.51058 0 0.530556 0.000234316 -8.12834e-06 0.00042303
8.48833 0 0.518871 0.000145905 -9.01135e-06 0.000275985
8.46695 0 0.507648 5.69243e-05 -1.04194e-05 0.00013024
8.44642 0 0.496871 -2.83254e-05 -7.42233e-06 -1.10045e-05
8.42671 0 0.486522 -0.000101479 -4.16374e-06 -0.000144455
8.40778 0 0.476583 -0.000158794 -2.69168e-06 -0.000264582
8.38959 0 0.467038 -0.000191769 1.7353e-06 -0.000375273
8.9384 0 0.827083 0.00119847 -7.69468e-06 0.00231934
8.89917 0 0.804525 0.00114784 -6.04584e-06 0.0022211
8.8615 0 0.782861 0.00109523 -6.24708e-06 0.00212001
8.82531 0 0.762056 0.00104723 -6.13116e-06 0.00201392
8.79057 0 0.742077 0.00099677 -6.43854e-06 0.00190446
8.75721 0 0.722891 0.000948656 -6.66945e-06 0.0017896
8.72516 0 0.704466 0.000900266 -5.32641e-06 0.00167399
8.69439 0 0.686772 0.000844309 -6.43125e-06 0.00154985
8.66483 0 0.66978 0.000789965 -6.30444e-06 0.00141799
8.63646 0 0.653462 0.000733907 -6.43464e-06 0.00128704
8.6092 0 0.637792 0.000674192 -6.62871e-06 0.00115322
8.58303 0 0.622743 0.00061198 -6.84579e-06 0.00101671
8.5579 0 0.608291 0.000544365 -7.2907e-06 0.000877063
8.53376 0 0.594413 0.000472836 -7.54774e-06 0.000735196
8.51058 0 0.581085 0.000395291 -8.00646e-06 0.000589874
8.48833 0 0.568287 0.000312061 -7.76303e-06 0.000441331
8.46695 0 0.555995 0.000223722 -8.02724e-06 0.000290154
8.44642 0 0.544192 0.000133777 -1.00355e-05 0.00013966
8.42671 0 0.532857 4.62127e-05 -9.74393e-06 -8.41374e-06
8.40778 0 0.521972 -3.34467e-05 -5.33817e-06 -0.000150533
8.38959 0 0.511518 -9.74708e-05 -2.00531e-06 -0.000283849
8.9384 0 0.899004 0.00120629 -7.53564e-06 0.00248928
8.89917 0 0.874483 0.00116448 -5.77715e-06 0.00239686
8.8615 0 0.850935 0.00112873 -6.457e-06 0.00229336
8.82531 0 0.828322 0.00109182 -6.13705e-06 0.00218268
8.79057 0 0.806606 0.00105077 -5.96811e-06 0.00207039
8.75721 0 0.785751 0.00101138 -6.80685e-06 0.00195114
8.72516 0 0.765724 0.000964557 -7.70431e-06 0.00182887
8.69439 0 0.746491 0.000932425 -5.94319e-06 0.00171116
8.66483 0 0.728022 0.000889457 -6.51644e-06 0.00158474
8.63646 0 0.710285 0.000834478 -6.64866e-06 0.00145269
8.6092 0 0.693252 0.000784501 -6.63031e-06 0.00131644
8.58303 0 0.676895 0.000730774 -6.92755e-06 0.00118012
8.5579 0 0.661186 0.000671757 -7.28709e-06 0.00104284
8.53376 0 0.646101 0.000609412 -7.47082e-06 0.000903348
8.51058 0 0.631614 0.000541288 -7.88022e-06 0.000760274
8.48833 0 0.617703 0.000467762 -8.03088e-06 0.000613374
8.46695 0 0.604343 0.000387508 -8.28836e-06 0.000462188
8.44642 0 0.591513 0.000302002 -7.72159e-06 0.000307737
8.42671 0 0.579192 0.000213265 -9.35058e-06 0.0001523
8.40778 0 0.56736 0.000125627 -1.02979e-05 -1.5825e-06
8.38959 0 0.555998 4.83929e-05 -7.47838e-06 -0.000150928
8.37214 0 0.545086 -2.34034e-05 -2.91908e-06 -0.000292719
8.9384 0 0.970925 0.00117993 -1.00699e-05 0.00267756
8.89917 0 0.944442 0.0011395 -4.08221e-06 0.00259659
8.8615 0 0.91901 0.00113309 -5.91993e-06 0.00248587
8.82531 0 0.894588 0.001112 -5.83256e-06 0.00236736
8.79057 0 0.871135 0.00108418 -5.67766e-06 0.0022495
8.75721 0 0.848612 0.00105647 -5.77368e-06 0.00212587
8.72516 0 0.826982 0.00102596 -5.81919e-06 0.00200317
8.69439 0 0.806211 0.000992797 -7.088e-06 0.0018714
8.66483 0 0.786263 0.000958305 -6.12372e-06 0.00174951
8.63646 0 0.767108 0.000928784 -5.83549e-06 0.00162141
8.6092 0 0.748712 0.000881768 -6.30304e-06 0.00148916
8.58303 0 0.731046 0.000832918 -6.58051e-06 0.0013497
8.5579 0 0.714081 0.000784904 -6.46057e-06 0.00121132
8.53376 0 0.697789 0.000733021 -6.86408e-06 0.00107245
8.51058 0 0.682144 0.000674659 -7.20704e-06 0.000930978
8.48833 0 0.667119 0.000611396 -7.58823e-06 0.000786215
8.46695 0 0.65269 0.000541829 -7.96162e-06 0.000637965
8.44642 0 0.638834 0.000466576 -8.13243e-06 0.000485482
8.42671 0 0.625528 0.000385612 -8.07251e-06 0.00032919
8.40778 0 0.612749 0.000300931 -8.78093e-06 0.000170565
8.38959 0 0.600478 0.000215704 -9.47664e-06 1.21932e-05
8.37214 0 0.588693 0.000133527 -8.2993e-06 -0.000140886
8.97926 0 1.07246 0.00103283 5.41278e-06 0.00307285
8.9384 0 1.04284 0.00116358 -1.02662e-05 0.00287358
8.89917 0 1.0144 0.00112194 -3.07749e-06 0.00280168
8.8615 0 0.987085 0.00112466 -6.45945e-06 0.00268153
8.82531 0 0.960854 0.00111057 -6.07699e-06 0.00256033
8.79057 0 0.935663 0.00109608 -5.91943e-06 0.00244201
8.75721 0 0.911471 0.00108067 -6.31649e-06 0.00231789
8.72516 0 0.88824 0.0010592 -6.13283e-06 0.00219534
8.69439 0 0.86593 0.00103155 -6.73321e-06 0.0020667
8.66483 0 0.844505 0.000999798 -7.63874e-06 0.0019338
8.63646 0 0.823931 0.000966723 -8.86854e-06 0.00179962
8.6092 0 0.804172 0.000945392 -7.59437e-06 0.00167131
8.58303 0 0.785198 0.000916793 -7.78668e-06 0.00154228
8.5579 0 0.766976 0.000868008 -8.09639e-06 0.00140547
8.53376 0 0.749477 0.000823547 -7.92268e-06 0.00125882
8.51058 0 0.732673 0.000775907 -7.95938e-06 0.00111346
8.48833 0 0.716535 0.000723989 -8.07986e-06 0.000967618
8.46695 0 0.701038 0.000665458 -8.30117e-06 0.000821932
8.44642 0 0.686155 0.000602392 -8.5585e-06 0.000672879
8.42671 0 0.671863 0.000533213 -8.681e-06 0.000520126
8.40778 0 0.658138 0.000459013 -8.58843e-06 0.000362148
8.38959 0 0.644957 0.000379302 -9.76507e-06 0.000200564
8.37214 0 0.6323 0.00029667 -1.00954e-05 3.74205e-05
8.97926 0 1.14643 0.000941129 7.42322e-06 0.00324275
8.9384 0 1.11476 0.00110721 -1.1585e-05 0.00301584
8.89917 0 1.08436 0.00106545 6.05782e-09 0.00298742
8.8615 0 1.05516 0.00109612 -5.16001e-06 0.00286457
8.82531 0 1.02712 0.00109476 -3.75043e-06 0.00274553
8.79057 0 1.00019 0.0010932 -3.44059e-06 0.00263056
8.75721 0 0.974331 0.00108884 -4.00345e-06 0.00250818
8.72516 0 0.949498 0.00107918 -3.76617e-06 0.0023871
8.69439 0 0.925649 0.00106654 -4.57141e-06 0.00225538
8.66483 0 0.902747 0.00105455 -4.4506e-06 0.00212365
8.63646 0 0.880753 0.00104583 -5.24793e-06 0.00198983
8.6092 0 0.859632 0.00101665 -5.8524e-06 0.00185309
8.58303 0 0.839349 0.000985386 -4.93104e-06 0.00172489
8.5579 0 0.819871 0.000970872 -5.07508e-06 0.00159046
8.53376 0 0.801165 0.00093638 -5.82974e-06 0.00145242
8.51058 0 0.783202 0.000887553 -6.23332e-06 0.00130519
8.48833 0 0.765951 0.000837076 -6.73934e-06 0.00115741
8.46695 0 0.749385 0.000785485 -6.80674e-06 0.00101127
8.44642 0 0.733476 0.000733215 -7.5223e-06 0.00086371
8.42671 0 0.718198 0.000673989 -7.9684e-06 0.000716824
8.40778 0 0.703526 0.000611422 -8.5081e-06 0.000564495
8.38959 0 0.689437 0.000541541 -8.76684e-06 0.000406567
8.37214 0 0.675907 0.000467657 -9.86403e-06 0.000245293
8.97926 0 1.22039 0.000812823 1.07567e-05 0.00338716
8.9384 0 1.18669 0.00104268 -1.32164e-05 0.00312152
8.89917 0 1.15432 0.000994849 1.01872e-06 0.00312246
8.8615 0 1.12324 0.00104255 -7.62463e-06 0.00300768
8.82531 0 1.09339 0.00105142 -6.40178e-06 0.00290591
8.79057 0 1.06472 0.00106084 -6.81977e-06 0.00280372
8.75721 0 1.03719 0.00106754 -7.56947e-06 0.00269134
8.72516 0 1.01076 0.00107339 -7.19047e-06 0.00257845
8.69439 0 0.985369 0.00107607 -7.41317e-06 0.00245481
8.66483 0 0.960988 0.00107203 -6.97189e-06 0.00232971
8.63646 0 0.937576 0.00105528 -7.34579e-06 0.00219489
8.6092 0 0.915092 0.00103147 -6.89982e-06 0.00206157
8.58303 0 0.893501 0.00100943 -8.83685e-06 0.00191384
8.5579 0 0.872766 0.000976837 -8.76003e-06 0.00176701
8.53376 0 0.852853 0.000958466 -8.40446e-06 0.0016337
8.51058 0 0.833731 0.000943103 -8.246e-06 0.00149578
8.48833 0 0.815368 0.00090206 -8.36044e-06 0.00135908
8.46695 0 0.797732 0.000863964 -7.7113e-06 0.00121179
8.44642 0 0.780797 0.000816931 -7.99676e-06 0.0010597
8.42671 0 0.764534 0.000767195 -7.67788e-06 0.000913443
8.40778 0 0.748915 0.000722844 -7.96221e-06 0.000763259
8.38959 0 0.733917 0.000669488 -8.29132e-06 0.000610463
8.37214 0 0.719513 0.000610015 -8.63687e-06 0.000452852
8.97926 0 1.29435 0.000683995 1.49504e-05 0.00344009
8.9384 0 1.25861 0.000955435 -1.28693e-05 0.00317059
8.89917 0 1.22428 0.000904418 9.17135e-06 0.00320244
8.8615 0 1.19131 0.000977246 3.87613e-07 0.00310973
8.82531 0 1.15965 0.0010101 2.06208e-06 0.00302858
8.79057 0 1.12925 0.00103846 1.88822e-06 0.00294726
8.75721 0 1.10005 0.00106137 6.12735e-07 0.00285075
8.72516 0 1.07202 0.00107881 2.00571e-07 0.00275086
8.69439 0 1.04509 0.00108758 -1.2555e-06 0.00263678
8.66483 0 1.01923 0.0010887 -1.81267e-06 0.0025202
8.63646 0 0.994399 0.00108362 -3.35861e-06 0.00239272
8.6092 0 0.970553 0.00107458 -4.2341e-06 0.00226111
8.58303 0 0.947652 0.0010661 -5.19218e-06 0.00212396
8.5579 0 0.925661 0.00105007 -6.35803e-06 0.00198691
8.53376 0 0.904541 0.00102908 -7.80815e-06 0.00184547
8.51058 0 0.88426 0.000994246 -8.75627e-06 0.00170932
8.48833 0 0.864784 0.000971213 -8.3356e-06 0.00157612
8.46695 0 0.84608 0.000952216 -8.49651e-06 0.00144042
8.44642 0 0.828118 0.000905061 -8.87816e-06 0.00129622
8.42671 0 0.810869 0.000855902 -9.3834e-06 0.00114682
8.40778 0 0.794304 0.000813029 -9.85648e-06 0.000995823
8.38959 0 0.778397 0.000761512 -1.0524e-05 0.000843899
8.37214 0 0.76312 0.000708587 -1.14302e-05 0.000690606
8.97926 0 1.36832 0.000548953 1.08767e-05 0.00330869
8.9384 0 1.33053 0.000820341 -2.79186e-05 0.00316165
8.89917 0 1.29423 0.00077716 -7.5122e-06 0.00321804
8.8615 0 1.25938 0.00083971 -1.47183e-05 0.00318247
8.82531 0 1.22592 0.000881137 -1.32419e-05 0.00312839
8.79057 0 1.19378 0.000920209 -1.1144e-05 0.00306418
8.75721 0 1.16291 0.000957273 -1.04392e-05 0.00297846
8.72516 0 1.13327 0.000991202 -8.79975e-06 0.00288755
8.69439 0 1.10481 0.00101854 -8.1038e-06 0.00278007
8.66484 0 1.07747 0.00104037 -6.98024e-06 0.00266878
8.63646 0 1.05122 0.00105539 -6.76995e-06 0.00254718
8.6092 0 1.02601 0.00106376 -5.92385e-06 0.00242476
8.58303 0 1.0018 0.0010655 -6.0415e-06 0.00229417
8.5579 0 0.978555 0.00105915 -5.15409e-06 0.0021669
8.53376 0 0.956229 0.00105716 -5.18763e-06 0.00203427
8.51058 0 0.934789 0.00104426 -7.47269e-06 0.00189609
8.48833 0 0.9142 0.0010213 -7.19708e-06 0.00175271
8.46695 0 0.894427 0.00100331 -6.0464e-06 0.00162402
8.44642 0 0.875439 0.000991215 -5.45512e-06 0.00148969
8.42671 0 0.857205 0.000966127 -5.39895e-06 0.00135472
8.40778 0 0.839693 0.000934518 -5.26219e-06 0.00121513
8.38959 0 0.822877 0.00090132 -4.57205e-06 0.00106646
8.37214 0 0.806727 0.000862959 -4.72365e-06 0.000914995
8.97926 0 1.44228 0.000483307 3.7424e-05 0.00292864
8.9384 0 1.40245 0.000800521 -1.60756e-06 0.00297525
8.89917 0 1.36419 0.000880178 8.18172e-06 0.00307917
8.8615 0 1.32746 0.000966694 5.73131e-06 0.00312174
8.82531 0 1.29218 0.00102851 2.71317e-06 0.00311007
8.79057 0 1.2583 0.00107011 1.30243e-06 0.00307347
8.75721 0 1.22577 0.00109784 -1.02197e-06 0.00300862
8.72516 0 1.19453 0.00111906 -2.36851e-06 0.00293779
8.69439 0 1.16453 0.00113213 -5.10553e-06 0.00284997
8.66483 0 1.13571 0.00113971 -6.41925e-06 0.00275938
8.63646 0 1.10804 0.00114184 -8.5639e-06 0.00265766
8.6092 0 1.08147 0.0011388 -9.68693e-06 0.00255193
8.58303 0 1.05595 0.00113153 -1.11866e-05 0.00243768
8.5579 0 1.03145 0.00112084 -1.20092e-05 0.00232115
8.53376 0 1.00792 0.00110471 -1.2706e-05 0.00220051
8.51058 0 0.985317 0.00108418 -1.18356e-05 0.00208522
8.48833 0 0.963616 0.0010618 -1.29399e-05 0.0019611
8.46695 0 0.942775 0.00104362 -1.39529e-05 0.00182929
8.44642 0 0.92276 0.00100629 -1.73349e-05 0.00169385
8.42671 0 0.90354 0.000968835 -1.58046e-05 0.0015707
8.40778 0 0.885082 0.000948845 -1.64745e-05 0.00144327
8.38959 0 0.867357 0.000914899 -1.72032e-05 0.00131481
8.37214 0 0.850334 0.000859923 -1.79634e-05 0.00118015
7.66922 0 0.966948 0.000428905 -7.73059e-06 -0.000139154
7.67296 0 0.988324 0.000421152 -8.84261e-06 -0.000100405
7.67685 0 1.01058 0.000410907 -7.80068e-06 -6.92907e-05
7.68091 0 1.03376 0.000393257 -7.75759e-06 -5.03255e-05
7.68513 0 1.0579 0.000366043 -8.2683e-06 -3.95491e-05
7.68953 0 1.08303 0.000330799 -9.11636e-06 -3.00119e-05
7.69411 0 1.1092 0.000289392 -8.85766e-06 -3.48456e-05
7.69888 0 1.13646 0.000215673 -9.84266e-06 -5.72091e-05
7.70385 0 1.16483 8.11456e-05 -1.09798e-05 -9.43481e-05
7.70902 0 1.19439 -0.000156845 -1.29495e-05 -0.000151353
7.7144 0 1.22516 -0.000487814 -1.72333e-05 -0.000213642
7.72001 0 1.25721 -0.000922974 -2.14543e-05 -0.000269503
7.72585 0 1.29057 -0.00144898 -2.36941e-05 -0.000319302
7.73193 0 1.32531 -0.00205803 -2.5368e-05 -0.000364164
7.70425 0 0.907776 0.000562045 -6.29898e-06 -0.000228033
7.70851 0 0.926707 0.000554801 -6.59811e-06 -0.000176619
7.71295 0 0.946421 0.000556984 -8.11873e-06 -0.000121238
7.71757 0 0.966948 0.000561666 -7.9474e-06 -6.63525e-05
7.72238 0 0.988324 0.000565428 -7.19176e-06 -1.713e-05
7.72738 0 1.01058 0.000566513 -6.92738e-06 2.23744e-05
7.7326 0 1.03376 0.000563689 -6.30396e-06 4.99809e-05
7.73803 0 1.0579 0.00055626 -5.98482e-06 6.70394e-05
7.74368 0 1.08303 0.000543725 -6.25826e-06 7.83489e-05
7.74957 0 1.1092 0.000525696 -6.03181e-06 7.94576e-05
7.7557 0 1.13646 0.00048762 -8.18069e-06 8.37504e-05
7.76209 0 1.16484 0.000427931 -8.115e-06 7.24545e-05
7.76874 0 1.19439 0.000312174 -9.70625e-06 3.91239e-05
7.77566 0 1.22516 0.000109324 -1.30152e-05 9.63771e-06
7.78287 0 1.25721 -0.000212207 -1.71063e-05 -2.79823e-05
7.79038 0 1.29057 -0.000625289 -1.94608e-05 -7.45227e-05
7.7982 0 1.32531 -0.00116199 -2.28466e-05 -0.000110296
7.73984 0 0.872138 0.000720371 -4.85444e-06 -0.000298794
7.74464 0 0.889597 0.000669347 -5.73142e-06 -0.000251745
7.74964 0 0.907777 0.000654924 -6.70312e-06 -0.000193431
7.75484 0 0.926707 0.000658383 -8.07525e-06 -0.000126642
7.76026 0 0.94642 0.000667602 -8.39501e-06 -5.55059e-05
7.76591 0 0.966948 0.00067845 -8.40114e-06 1.2293e-05
7.77179 0 0.988324 0.000688735 -7.82859e-06 7.30099e-05
7.77791 0 1.01058 0.000697713 -5.80496e-06 0.000123065
7.78428 0 1.03376 0.000705694 -5.26623e-06 0.000163147
7.79092 0 1.0579 0.000716165 -5.49832e-06 0.000196074
7.79783 0 1.08303 0.000720458 -5.25487e-06 0.000227085
7.80503 0 1.1092 0.000718478 -3.89986e-06 0.000233371
7.81252 0 1.13646 0.000699375 -3.119e-06 0.000218239
7.82033 0 1.16483 0.000654259 -2.40682e-06 0.000197517
7.82845 0 1.19439 0.000585516 -4.8164e-06 0.000184921
7.83692 0 1.22516 0.000482356 -6.54807e-06 0.000175719
7.84573 0 1.25721 0.00029762 -1.0229e-05 0.000163477
7.85491 0 1.29057 1.54115e-05 -1.5231e-05 0.000137531
7.86446 0 1.32531 -0.000410254 -1.98932e-05 0.000113969
7.87441 0 1.3615 -0.000926627 -2.02794e-05 4.72801e-05
7.778 0 0.855372 0.00085346 -4.38714e-06 -0.000337538
7.78345 0 0.872138 0.000773553 -5.44451e-06 -0.000287121
7.78912 0 0.889597 0.000742297 -6.48849e-06 -0.000225623
7.79503 0 0.907776 0.000740593 -8.03342e-06 -0.00015159
7.80118 0 0.926708 0.000750464 -9.69995e-06 -6.75183e-05
7.80759 0 0.94642 0.00076459 -9.61502e-06 1.83709e-05
7.81425 0 0.966948 0.000780807 -8.47855e-06 9.98366e-05
7.82121 0 0.988324 0.00079752 -6.78552e-06 0.000173776
7.82844 0 1.01058 0.00081471 -6.43109e-06 0.000239437
7.83597 0 1.03376 0.000830838 -6.59872e-06 0.000302576
7.84382 0 1.0579 0.000846285 -5.48906e-06 0.000346862
7.85199 0 1.08303 0.000853076 -3.68159e-06 0.000368393
7.86049 0 1.1092 0.000848957 -1.58737e-06 0.000375741
7.86935 0 1.13646 0.000843077 -5.23129e-07 0.000371521
7.87857 0 1.16484 0.0008289 2.60707e-07 0.000363032
7.88818 0 1.19439 0.000797481 -3.8367e-07 0.000354439
7.89818 0 1.22516 0.000730877 -8.81039e-07 0.000339498
7.90859 0 1.25721 0.000615223 -5.56041e-06 0.000326195
7.91943 0 1.29057 0.0004299 -7.53652e-06 0.000299617
7.93073 0 1.32531 0.000143071 -1.5553e-05 0.000299879
7.94249 0 1.3615 -0.000251164 -1.44355e-05 0.000241508
7.81473 0 0.839271 0.000998668 -2.71949e-06 -0.000372805
7.82076 0 0.855372 0.000882044 -4.64735e-06 -0.000333962
7.82705 0 0.872138 0.000826018 -5.35188e-06 -0.000271968
7.8336 0 0.889597 0.000811336 -7.25098e-06 -0.000193234
7.84042 0 0.907777 0.000817694 -1.07986e-05 -9.99825e-05
7.84752 0 0.926707 0.000832278 -1.07595e-05 9.78488e-07
7.85491 0 0.946421 0.0008509 -1.00074e-05 0.00010304
7.8626 0 0.966948 0.000872838 -7.88708e-06 0.000201834
7.87062 0 0.988324 0.000895861 -7.82272e-06 0.000293179
7.87897 0 1.01058 0.000915176 -7.19942e-06 0.000371632
7.88766 0 1.03376 0.000931725 -5.99601e-06 0.000434658
7.89671 0 1.0579 0.000940718 -3.80698e-06 0.000479533
7.90614 0 1.08303 0.000947944 -1.75301e-06 0.00050909
7.91595 0 1.1092 0.000956147 -5.80362e-07 0.000535363
7.92617 0 1.13646 0.00096455 -1.38567e-07 0.000555367
7.93681 0 1.16483 0.000968034 9.07133e-07 0.000559288
7.9479 0 1.19439 0.000955927 1.23025e-06 0.000550331
7.95943 0 1.22516 0.000919734 2.28064e-06 0.000527707
7.97145 0 1.25721 0.000843375 4.7945e-08 0.000498859
7.98397 0 1.29057 0.000716657 -1.27787e-06 0.000467166
7.99699 0 1.32531 0.000518942 -9.85525e-06 0.000457219
8.01056 0 1.3615 0.000225572 -7.77857e-06 0.000398919
8.02469 0 1.39917 -0.00012601 -2.18382e-05 0.000441216
7.85669 0 0.839271 0.000996884 -2.80671e-06 -0.000378251
7.86353 0 0.855372 0.000908506 -5.09798e-06 -0.000327794
7.87066 0 0.872138 0.000875275 -7.69386e-06 -0.000246857
7.87808 0 0.889596 0.000872958 -1.0006e-05 -0.000148692
7.88581 0 0.907777 0.000884548 -1.15194e-05 -3.60434e-05
7.89385 0 0.926708 0.000903275 -1.13744e-05 8.27427e-05
7.90223 0 0.94642 0.00092737 -1.00104e-05 0.000203802
7.91095 0 0.966948 0.000954648 -8.83499e-06 0.000318644
7.92003 0 0.988324 0.000976368 -8.08707e-06 0.000414832
7.9295 0 1.01058 0.000991411 -6.79237e-06 0.00049457
7.93935 0 1.03376 0.00100507 -5.04884e-06 0.0005631
7.94961 0 1.0579 0.00101934 -2.39552e-06 0.000620284
7.96029 0 1.08303 0.00103415 -1.37132e-06 0.000673532
7.97141 0 1.1092 0.00105243 -7.24429e-07 0.000715971
7.98299 0 1.13646 0.00106485 -2.56414e-07 0.000743204
7.99505 0 1.16484 0.00107268 1.18613e-06 0.000753778
8.00761 0 1.19439 0.00107034 1.42699e-06 0.000752862
8.02069 0 1.22516 0.00105457 2.94508e-06 0.000738722
8.03431 0 1.25721 0.00101045 2.58888e-06 0.00071104
8.04849 0 1.29057 0.000927899 2.99958e-06 0.000669364
8.06326 0 1.32531 0.000781551 -2.36967e-06 0.000628018
8.07864 0 1.3615 0.000546033 -2.06724e-07 0.000568166
8.09465 0 1.39917 0.000275741 -1.92195e-05 0.000584863
7.89865 0 0.839271 0.000990931 -3.76812e-06 -0.000382499
7.9063 0 0.855372 0.000931811 -6.51891e-06 -0.000312017
7.91427 0 0.872138 0.000917144 -8.58633e-06 -0.000209499
7.92256 0 0.889597 0.000923003 -1.21455e-05 -8.88049e-05
7.93119 0 0.907776 0.000939174 -1.2414e-05 4.3785e-05
7.94019 0 0.926708 0.00096283 -1.15203e-05 0.000183054
7.94955 0 0.94642 0.000992122 -1.00166e-05 0.000319713
7.9593 0 0.966948 0.00101702 -8.69213e-06 0.000437541
7.96945 0 0.988324 0.00103476 -7.49272e-06 0.000532843
7.98003 0 1.01058 0.00104844 -6.03051e-06 0.000622516
7.99104 0 1.03376 0.00106621 -3.8821e-06 0.00070866
8.0025 0 1.0579 0.00108558 -1.62638e-06 0.000782547
8.01444 0 1.08303 0.00110593 -1.62889e-06 0.000847261
8.02687 0 1.1092 0.00112419 -5.0752e-07 0.000898249
8.03981 0 1.13646 0.00113779 -1.73144e-07 0.0009325
8.05329 0 1.16483 0.00114992 1.2634e-06 0.000955828
8.06733 0 1.19439 0.00115489 1.42538e-06 0.000964291
8.08195 0 1.22516 0.00115356 2.92966e-06 0.000960048
8.09717 0 1.25721 0.00113303 2.83903e-06 0.000938778
8.11302 0 1.29057 0.0010885 4.28635e-06 0.000898873
8.12952 0 1.32531 0.00100236 1.07719e-06 0.000842295
8.14671 0 1.3615 0.000853719 1.95698e-07 0.000773313
8.16461 0 1.39917 0.000638499 -9.78238e-06 0.000714058
8.18324 0 1.4384 0.000337359 -4.81892e-07 0.000620336
7.94062 0 0.839271 0.000979297 -4.41902e-06 -0.000372674
7.94907 0 0.855372 0.000947806 -7.54016e-06 -0.000277174
7.95787 0 0.872138 0.000946803 -1.27063e-05 -0.000154039
7.96704 0 0.889597 0.000960491 -1.37204e-05 -1.14247e-05
7.97658 0 0.907777 0.00098345 -1.31921e-05 0.000141965
7.98652 0 0.926707 0.00101362 -1.08847e-05 0.000299515
7.99687 0 0.946421 0.00104304 -1.02494e-05 0.000435836
8.00765 0 0.966948 0.00106273 -8.89234e-06 0.000550869
8.01887 0 0.988324 0.00108199 -7.13083e-06 0.000655979
8.03055 0 1.01058 0.0010979 -6.12419e-06 0.000758379
8.04273 0 1.03376 0.00112101 -3.12163e-06 0.000860541
8.0554 0 1.0579 0.00114226 -2.24724e-06 0.000947796
8.06859 0 1.08303 0.00116165 -2.31683e-06 0.00102127
8.08233 0 1.1092 0.00117932 -1.05137e-06 0.00107904
8.09664 0 1.13646 0.0011955 -5.98346e-07 0.00112578
8.11154 0 1.16484 0.00121029 5.78143e-07 0.0011606
8.12705 0 1.19439 0.0012197 5.56315e-07 0.00118114
8.14321 0 1.22516 0.00122488 2.07888e-06 0.00118777
8.16003 0 1.25721 0.00121866 1.94202e-06 0.00117853
8.17755 0 1.29057 0.0011961 3.3592e-06 0.00115184
8.19579 0 1.32531 0.00114627 1.66263e-06 0.00110348
8.21479 0 1.3615 0.00106097 2.17527e-06 0.00103729
8.23457 0 1.39917 0.000898615 -3.4397e-06 0.000961175
8.25516 0 1.4384 0.000661098 -3.42789e-06 0.000882811
8.27661 0 1.47926 0.000372455 -2.11206e-05 0.000841571
7.99184 0 0.855371 0.000953605 -1.07738e-05 -0.000209767
8.00148 0 0.872138 0.000962969 -1.302e-05 -6.17769e-05
8.01152 0 0.889596 0.000983327 -1.35267e-05 0.00010252
8.02197 0 0.907777 0.0010122 -1.20731e-05 0.000274576
8.03286 0 0.926708 0.0010463 -1.06056e-05 0.000432968
8.04419 0 0.94642 0.00107058 -9.08868e-06 0.000567329
8.05599 0 0.966948 0.00108886 -7.59627e-06 0.000687495
8.06829 0 0.988324 0.00110707 -6.47861e-06 0.000804021
8.08108 0 1.01058 0.00113149 -3.928e-06 0.000920297
8.09441 0 1.03376 0.0011529 -2.04205e-06 0.00103696
8.10829 0 1.0579 0.00117353 -1.94331e-06 0.00112796
8.12274 0 1.08303 0.00119111 -1.66278e-06 0.0012068
8.13779 0 1.1092 0.00120933 -5.0115e-07 0.00127468
8.15346 0 1.13646 0.00122514 -3.17704e-07 0.00133257
8.16978 0 1.16483 0.0012402 9.0505e-07 0.00137893
8.18677 0 1.19439 0.00125061 9.11379e-07 0.00141127
8.20447 0 1.22516 0.00125839 2.10193e-06 0.00143035
8.22289 0 1.25721 0.00125662 1.81138e-06 0.00143311
8.24208 0 1.29057 0.00124275 2.89104e-06 0.00142095
8.26206 0 1.32531 0.00120973 1.43524e-06 0.00138841
8.28286 0 1.3615 0.0011544 1.92615e-06 0.00133791
8.30453 0 1.39917 0.00103681 -2.80806e-06 0.00126826
8.32708 0 1.4384 0.000859378 -9.57918e-07 0.00118061
8.35057 0 1.47926 0.000617014 -9.59711e-06 0.0010349
8.03461 0 0.855372 0.00095504 -1.42217e-05 -0.000127529
8.04508 0 0.872138 0.000975985 -1.47969e-05 4.00648e-05
8.056 0 0.889597 0.00100491 -1.40354e-05 0.000217812
8.06736 0 0.907776 0.0010402 -1.20767e-05 0.000400687
8.07919 0 0.926707 0.00107392 -1.11367e-05 0.0005546
8.09151 0 0.946421 0.00109809 -9.36539e-06 0.000677968
8.10434 0 0.966948 0.00111421 -8.13558e-06 0.000802866
8.1177 0 0.988324 0.00113283 -7.65169e-06 0.000940586
8.13161 0 1.01058 0.00116403 -4.0744e-06 0.00106961
8.1461 0 1.03376 0.00118495 -3.50912e-06 0.00118377
8.16118 0 1.0579 0.00120249 -3.29438e-06 0.00128502
8.17689 0 1.08303 0.00121903 -3.07893e-06 0.00137327
8.19325 0 1.1092 0.00123558 -1.70277e-06 0.00145352
8.21028 0 1.13646 0.00124862 -1.33562e-06 0.00152232
8.22802 0 1.16484 0.00126031 -1.42265e-07 0.00158093
8.24649 0 1.19439 0.00126683 -2.70054e-07 0.00162643
8.26572 0 1.22516 0.00127062 9.3274e-07 0.00165922
8.28575 0 1.25721 0.00126448 6.44821e-07 0.00167512
8.30661 0 1.29057 0.00124876 1.75598e-06 0.00167578
8.32832 0 1.32531 0.00121674 3.06608e-07 0.00165316
8.35093 0 1.3615 0.00117041 7.84489e-07 0.0016094
8.37448 0 1.39917 0.00108297 -3.69276e-06 0.00153824
8.399 0 1.4384 0.000945881 -2.18487e-06 0.00143426
8.42454 0 1.47926 0.000758382 -1.4263e-05 0.00126866
8.07738 0 0.855372 0.000943154 -1.38583e-05 2.14469e-05
8.08869 0 0.872138 0.000972232 -1.26782e-05 0.000210406
8.10048 0 0.889597 0.0010088 -1.01419e-05 0.000402442
8.11275 0 0.907777 0.00104792 -1.0357e-05 0.000579324
8.12553 0 0.926708 0.00107712 -8.28616e-06 0.000728611
8.13883 0 0.94642 0.00110058 -6.30938e-06 0.000851044
8.15269 0 0.966948 0.00111629 -5.77927e-06 0.00097765
8.16712 0 0.988324 0.00113688 -4.60704e-06 0.00113279
8.18214 0 1.01058 0.00116345 -1.61521e-06 0.00127482
8.19779 0 1.03376 0.001181 -2.13167e-06 0.00138639
8.21408 0 1.0579 0.00119674 -1.31785e-06 0.00148956
8.23104 0 1.08303 0.00120996 -1.08628e-06 0.00158335
8.24871 0 1.1092 0.00122242 1.04662e-07 0.00166939
8.26711 0 1.13646 0.00123142 3.87128e-07 0.00174526
8.28626 0 1.16483 0.00123913 1.5821e-06 0.00181084
8.30621 0 1.19439 0.00124112 1.40842e-06 0.00186183
8.32698 0 1.22516 0.00124043 2.44262e-06 0.00190033
8.34861 0 1.25721 0.00123014 1.99933e-06 0.0019204
8.37113 0 1.29057 0.00121121 2.7875e-06 0.00192438
8.39459 0 1.32531 0.001178 1.44338e-06 0.00190335
8.41901 0 1.3615 0.00113551 1.93263e-06 0.00185908
8.44444 0 1.39917 0.00106537 -1.94777e-06 0.00178129
8.47093 0 1.4384 0.00095711 1.58519e-07 0.00166216
8.4985 0 1.47926 0.000806429 -1.36709e-05 0.00148259
8.12014 0 0.855372 0.000944907 -1.60937e-05 0.000147931
8.1323 0 0.872138 0.000983598 -1.32292e-05 0.000336912
8.14496 0 0.889596 0.00102409 -1.31275e-05 0.000525779
8.15814 0 0.907777 0.00106138 -1.2683e-05 0.000687994
8.17186 0 0.926708 0.00108744 -1.03004e-05 0.000824662
8.18616 0 0.94642 0.00110928 -8.78542e-06 0.000951398
8.20104 0 0.966948 0.00113002 -7.82298e-06 0.00108383
8.21654 0 0.988324 0.00115897 -5.91791e-06 0.00124446
8.23267 0 1.01058 0.00117837 -4.42882e-06 0.00138577
8.24948 0 1.03376 0.00119257 -5.08665e-06 0.0014991
8.26697 0 1.0579 0.00120817 -4.39258e-06 0.0016085