# p  POINT_DATA 90431
# x  y  z  p
4 0 0 -0.279361
4 0.00256965 0 -0.279342
4 0.00518642 0 -0.279404
4 0.00785119 0 -0.279678
4 0.00128135 -0.00996393 -0.272246
4 0.00128135 0.00996393 -0.286274
4 0.0105648 0 -0.280187
4 0.00386754 -0.00996393 -0.272232
4 0.00386754 0.00996393 -0.286199
4 0.00650117 -0.00996393 -0.272147
4 0.00650117 0.00996393 -0.286624
4 0.0133283 0 -0.280988
4 0.00918311 -0.00996393 -0.272057
4 0.00918311 0.00996393 -0.287489
4 0.0119142 -0.00996393 -0.272008
4 0.0119142 0.00996393 -0.288832
4 0.0161424 0 -0.282154
4 0.0146954 -0.00996393 -0.272133
4 0.0146954 0.00996393 -0.290662
4 0.0190081 0 -0.283751
4 0 -0.02 -0.273107
4 0 0.02 -0.288042
4 0.0175277 -0.00996393 -0.272641
4 0.0175277 0.00996393 -0.292923
4 0.00256965 -0.02 -0.273067
4 0.00256965 0.02 -0.288005
4 0.00518642 -0.02 -0.272969
4 0.00518642 0.02 -0.288289
4 0.00785119 -0.02 -0.272872
4 0.00785119 0.02 -0.28921
4 0.0219263 0 -0.28582
4 0.0105648 -0.02 -0.272817
4 0.0105648 0.02 -0.290725
4 0.0204118 -0.00996393 -0.273694
4 0.0204118 0.00996393 -0.295548
4 0.0133283 -0.02 -0.272885
4 0.0133283 0.02 -0.292883
4 0.0248981 0 -0.288383
4 0.0233489 -0.00996393 -0.275345
4 0.0233489 0.00996393 -0.29855
4 0.0161424 -0.02 -0.273218
4 0.0161424 0.02 -0.295668
4 0.0190081 -0.02 -0.273971
4 0.0190081 0.02 -0.298992
4 0.0279244 0 -0.291407
4 0.0263398 -0.00996393 -0.277606
4 0.0263398 0.00996393 -0.301928
4 0.0219263 -0.02 -0.275243
4 0.0219263 0.02 -0.302768
4 0.00128135 -0.0298918 -0.273575
4 0.00128135 0.0298918 -0.289657
4 0.00386754 -0.0298918 -0.273411
4 0.00386754 0.0298918 -0.289577
4 0.00650117 -0.0298918 -0.273278
4 0.00650117 0.0298918 -0.290448
4 0.0310063 0 -0.294825
4 0.0293856 -0.00996393 -0.280449
4 0.0293856 0.00996393 -0.305567
4 0.00918311 -0.0298918 -0.273184
4 0.00918311 0.0298918 -0.291988
4 0.0248981 -0.02 -0.277068
4 0.0248981 0.02 -0.30691
4 0.0119142 -0.0298918 -0.273181
4 0.0119142 0.0298918 -0.294318
4 0.0146954 -0.0298918 -0.273365
4 0.0146954 0.0298918 -0.297467
4 0.0324873 -0.00996393 -0.283897
4 0.0324873 0.00996393 -0.309312
4 0.0341446 0 -0.29853
4 0.0279244 -0.02 -0.27945
4 0.0279244 0.02 -0.311274
4 0.0175277 -0.0298918 -0.273868
4 0.0175277 0.0298918 -0.301379
4 0.0204118 -0.0298918 -0.274806
4 0.0204118 0.0298918 -0.305878
4 0.0310063 -0.02 -0.282374
4 0.0310063 0.02 -0.315654
4 0.0356458 -0.00996393 -0.287841
4 0.0356458 0.00996393 -0.312975
4 0.0373405 0 -0.302349
4 0.0233489 -0.0298918 -0.276244
4 0.0233489 0.0298918 -0.31084
4 0.0341446 -0.02 -0.285784
4 0.0341446 0.02 -0.319783
4 0.0263398 -0.0298918 -0.278187
4 0.0263398 0.0298918 -0.316041
4 0 0.04 -0.281065
4 0 -0.04 -0.272558
4 0.00256965 0.04 -0.281146
4 0.00256965 -0.04 -0.272484
4 0.0388623 -0.00996393 -0.292123
4 0.0388623 0.00996393 -0.316329
4 0.00518642 0.04 -0.28155
4 0.00518642 -0.04 -0.272325
4 0.040595 0 -0.306084
4 0.00785119 -0.04 -0.272189
4 0.00785119 0.04 -0.282517
4 0.0105648 -0.04 -0.272134
4 0.0105648 0.04 -0.284148
4 0.0293856 -0.0298918 -0.280659
4 0.0293856 0.0298918 -0.321244
4 0.0133283 -0.04 -0.272247
4 0.0133283 0.04 -0.286482
4 0.0373405 -0.02 -0.289607
4 0.0373405 0.02 -0.323361
4 0.0161424 -0.04 -0.27264
4 0.0161424 0.04 -0.289499
4 0.0421378 -0.00996393 -0.29659
4 0.0421378 0.00996393 -0.319117
4 0.0439092 0 -0.309591
4 0.0324873 -0.0298918 -0.283577
4 0.0324873 0.0298918 -0.326127
4 0.0190081 0.04 -0.293124
4 0.0190081 -0.04 -0.27342
4 0.040595 -0.02 -0.293779
4 0.040595 0.02 -0.326099
4 0.0219263 0.04 -0.29724
4 0.0219263 -0.04 -0.27467
4 0.0356458 -0.0298918 -0.286898
4 0.0356458 0.0298918 -0.330292
4 0.0454733 0.00996393 -0.321381
4 0.0454733 -0.00996393 -0.301034
4 0.0248981 0.04 -0.301699
4 0.0248981 -0.04 -0.276434
4 0.0472842 0 -0.312778
4 0.0439092 -0.02 -0.298218
4 0.0439092 0.02 -0.327742
4 0.0279244 0.04 -0.306315
4 0.0279244 -0.04 -0.278731
4 0.0388623 -0.0298918 -0.29064
4 0.0388623 0.0298918 -0.33335
4 0.00128135 0.0498197 -0.272318
4 0.00128135 -0.0498197 -0.271164
4 0.0488701 -0.00996393 -0.305339
4 0.0488701 0.00996393 -0.323044
4 0.00386754 0.0498197 -0.272705
4 0.00386754 -0.0498197 -0.271013
4 0.00650117 -0.0498197 -0.270828
4 0.00650117 0.0498197 -0.27314
4 0.0310063 0.04 -0.310852
4 0.0310063 -0.04 -0.281554
4 0.00918311 -0.0498197 -0.270688
4 0.00918311 0.0498197 -0.27416
4 0.0507211 0 -0.315581
4 0.0119142 0.0498197 -0.275785
4 0.0119142 -0.0498197 -0.270685
4 0.0472842 -0.02 -0.302815
4 0.0472842 0.02 -0.328125
4 0.0421378 -0.0298918 -0.294848
4 0.0421378 0.0298918 -0.335024
4 0.0146954 -0.0498197 -0.270933
4 0.0146954 0.0498197 -0.277994
4 0.0341446 0.04 -0.314985
4 0.0341446 -0.04 -0.284867
4 0.0175277 -0.0498197 -0.271532
4 0.0175277 0.0498197 -0.280758
4 0.0523291 -0.00996393 -0.309474
4 0.0523291 0.00996393 -0.324096
4 0.0204118 0.0498197 -0.284028
4 0.0204118 -0.0498197 -0.272571
4 0.054221 0 -0.317988
4 0.0454733 -0.0298918 -0.299501
4 0.0454733 0.0298918 -0.334805
4 0.0507211 -0.02 -0.307469
4 0.0507211 0.02 -0.327436
4 0.0373405 0.04 -0.318349
4 0.0373405 -0.04 -0.288628
4 0.0233489 0.0498197 -0.287682
4 0.0233489 -0.0498197 -0.274119
4 0.0263398 0.0498197 -0.291599
4 0.0263398 -0.0498197 -0.276214
4 0.0558515 -0.00996393 -0.313432
4 0.0558515 0.00996393 -0.324548
4 0.040595 0.04 -0.32061
4 0.040595 -0.04 -0.292789
4 0.0488701 0.0298918 -0.332611
4 0.0488701 -0.0298918 -0.304502
4 0.0577851 0 -0.320023
4 0.054221 -0.02 -0.312112
4 0.054221 0.02 -0.326045
4 0.0293856 0.0498197 -0.295632
4 0.0293856 -0.0498197 -0.278871
4 0.0439092 0.04 -0.321413
4 0.0439092 -0.04 -0.297329
4 0.0324873 0.0498197 -0.299544
4 0.0324873 -0.0498197 -0.282102
4 0 0.06 -0.261445
4 0 -0.06 -0.274604
4 0.00256965 0.06 -0.261674
4 0.00256965 -0.06 -0.274551
4 0.00518642 0.06 -0.262021
4 0.00518642 -0.06 -0.274424
4 0.0523291 -0.0298918 -0.309693
4 0.0523291 0.0298918 -0.329357
4 0.0594386 -0.00996393 -0.317166
4 0.0594386 0.00996393 -0.324549
4 0.00785119 0.06 -0.262473
4 0.00785119 -0.06 -0.274317
4 0.0105648 0.06 -0.263362
4 0.0105648 -0.06 -0.274322
4 0.0577851 -0.02 -0.316703
4 0.0577851 0.02 -0.324196
4 0.0356458 0.0498197 -0.303002
4 0.0356458 -0.0498197 -0.285875
4 0.0614146 0 -0.321759
4 0.0133283 0.06 -0.264698
4 0.0133283 -0.06 -0.27453
4 0.0472842 0.04 -0.320511
4 0.0472842 -0.04 -0.302231
4 0.0161424 0.06 -0.266445
4 0.0161424 -0.06 -0.275037
4 0.0190081 0.06 -0.268543
4 0.0190081 -0.06 -0.275934
4 0.0388623 0.0498197 -0.305672
4 0.0388623 -0.0498197 -0.290082
4 0.0558515 -0.0298918 -0.315005
4 0.0558515 0.0298918 -0.325581
4 0.0630915 -0.00996393 -0.320684
4 0.0630915 0.00996393 -0.324275
4 0.0219263 0.06 -0.270901
4 0.0219263 -0.06 -0.277292
4 0.0614146 -0.02 -0.321229
4 0.0614146 0.02 -0.322096
4 0.0507211 0.04 -0.318128
4 0.0507211 -0.04 -0.307431
4 0.0248981 0.06 -0.273411
4 0.0248981 -0.06 -0.279143
4 0.0651106 0 -0.323296
4 0.0421378 0.0498197 -0.307228
4 0.0421378 -0.0498197 -0.294578
4 0.0279244 0.06 -0.275955
4 0.0279244 -0.06 -0.281497
4 0.0594386 -0.0298918 -0.320403
4 0.0594386 0.0298918 -0.321571
4 0.054221 0.04 -0.314756
4 0.054221 -0.04 -0.31287
4 0.0454733 0.0498197 -0.307392
4 0.0454733 -0.0498197 -0.299398
4 0.0310063 0.06 -0.278375
4 0.0310063 -0.06 -0.284373
4 0.0668113 -0.00996393 -0.324108
4 0.0668113 0.00996393 -0.32381
4 0.0651106 -0.02 -0.325727
4 0.0651106 0.02 -0.319907
4 0.0688745 0 -0.324729
4 0.0341446 0.06 -0.280458
4 0.0341446 -0.06 -0.287764
4 0.00128135 0.0697475 -0.250543
4 0.00128135 -0.0697475 -0.277649
4 0.0488701 0.0498197 -0.306068
4 0.0488701 -0.0498197 -0.304559
4 0.0630915 -0.0298918 -0.32591
4 0.0630915 0.0298918 -0.317547
4 0.00386754 0.0697475 -0.251052
4 0.00386754 -0.0697475 -0.277573
4 0.00650117 0.0697475 -0.251099
4 0.00650117 -0.0697475 -0.277477
4 0.0577851 0.04 -0.310783
4 0.0577851 -0.04 -0.318536
4 0.00918311 0.0697475 -0.251403
4 0.00918311 -0.0697475 -0.277468
4 0.0373405 0.06 -0.281973
4 0.0373405 -0.06 -0.291607
4 0.0119142 0.0697475 -0.25201
4 0.0119142 -0.0697475 -0.27763
4 0.0146954 0.0697475 -0.252903
4 0.0146954 -0.0697475 -0.278039
4 0.0705994 -0.00996393 -0.32748
4 0.0705994 0.00996393 -0.323275
4 0.0688745 -0.02 -0.330221
4 0.0688745 0.02 -0.31775
4 0.0175277 0.0697475 -0.25401
4 0.0175277 -0.0697475 -0.278791
4 0.0523291 0.0498197 -0.303409
4 0.0523291 -0.0498197 -0.31004
4 0.040595 0.06 -0.282724
4 0.040595 -0.06 -0.295832
4 0.0204118 0.0697475 -0.255237
4 0.0204118 -0.0697475 -0.279968
4 0.0727073 0 -0.326126
4 0.0668113 -0.0298918 -0.331518
4 0.0668113 0.0298918 -0.313667
4 0.0614146 0.04 -0.306526
4 0.0614146 -0.04 -0.32441
4 0.0233489 0.0697475 -0.256486
4 0.0233489 -0.0697475 -0.281618
4 0.0439092 0.06 -0.282558
4 0.0439092 -0.06 -0.300388
4 0.0263398 0.0697475 -0.257667
4 0.0263398 -0.0697475 -0.283709
4 0.0558515 0.0498197 -0.299755
4 0.0558515 -0.0498197 -0.315849
4 0.074457 -0.00996393 -0.330721
4 0.074457 0.00996393 -0.322843
4 0.0727073 -0.02 -0.334657
4 0.0727073 0.02 -0.315741
4 0.0293856 0.0697475 -0.258668
4 0.0293856 -0.0697475 -0.286265
4 0.0472842 0.06 -0.281384
4 0.0472842 -0.06 -0.305228
4 0.0651106 0.04 -0.302261
4 0.0651106 -0.04 -0.330427
4 0.0766105 0 -0.327546
4 0.0705994 -0.0298918 -0.337147
4 0.0705994 0.0298918 -0.310033
4 0.0324873 0.0697475 -0.25936
4 0.0324873 -0.0697475 -0.289313
4 0.0594386 0.0498197 -0.29548
4 0.0594386 -0.0498197 -0.32204
4 0.0356458 0.0697475 -0.259601
4 0.0356458 -0.0697475 -0.292814
4 0.0507211 0.06 -0.279251
4 0.0507211 -0.06 -0.310328
4 0.0783853 -0.00996393 -0.333945
4 0.0783853 0.00996393 -0.322534
4 0.0766105 -0.02 -0.339002
4 0.0766105 0.02 -0.313945
4 0.0688745 -0.04 -0.336521
4 0.0688745 0.04 -0.298186
4 0.0388623 0.0697475 -0.259275
4 0.0388623 -0.0697475 -0.296702
4 0 0.08 -0.247489
4 0 -0.08 -0.280976
4 0.00256965 0.08 -0.247748
4 0.00256965 -0.08 -0.280945
4 0.00518642 0.08 -0.248061
4 0.00518642 -0.08 -0.280888
4 0.074457 -0.0298918 -0.342702
4 0.074457 0.0298918 -0.306711
4 0.00785119 0.08 -0.248303
4 0.00785119 -0.08 -0.280887
4 0.0630915 0.0498197 -0.290958
4 0.0630915 -0.0498197 -0.328487
4 0.0805853 0 -0.329051
4 0.0105648 0.08 -0.248818
4 0.0105648 -0.08 -0.281021
4 0.054221 0.06 -0.276353
4 0.054221 -0.06 -0.315697
4 0.0133283 0.08 -0.249599
4 0.0133283 -0.08 -0.281368
4 0.0421378 0.0697475 -0.258386
4 0.0421378 -0.0697475 -0.301006
4 0.0161424 0.08 -0.250582
4 0.0161424 -0.08 -0.281999
4 0.0190081 0.08 -0.251686
4 0.0190081 -0.08 -0.282971
4 0.0219263 0.08 -0.252829
4 0.0219263 -0.08 -0.284323
4 0.0727073 -0.04 -0.342645
4 0.0727073 0.04 -0.294413
4 0.0823856 -0.00996393 -0.337403
4 0.0823856 0.00996393 -0.322225
4 0.0805853 -0.02 -0.343303
4 0.0805853 0.02 -0.312318
4 0.0454733 0.0697475 -0.256927
4 0.0454733 -0.0697475 -0.305612
4 0.0577851 0.06 -0.272956
4 0.0577851 -0.06 -0.321376
4 0.0668113 -0.0498197 -0.335044
4 0.0668113 0.0498197 -0.286528
4 0.0248981 0.08 -0.253916
4 0.0248981 -0.08 -0.286075
4 0.0783853 -0.0298918 -0.348103
4 0.0783853 0.0298918 -0.303692
4 0.0846329 0 -0.330659
4 0.0279244 0.08 -0.25485
4 0.0279244 -0.08 -0.288232
4 0.0488701 0.0697475 -0.254912
4 0.0488701 -0.0697475 -0.310403
4 0.0310063 0.08 -0.255526
4 0.0310063 -0.08 -0.290781
4 0.0614146 0.06 -0.269335
4 0.0614146 -0.06 -0.327363
4 0.0705994 -0.0498197 -0.34168
4 0.0705994 0.0498197 -0.282363
4 0.0766105 -0.04 -0.348756
4 0.0766105 0.04 -0.29098
4 0.0846329 -0.02 -0.3476
4 0.0846329 0.02 -0.3108
4 0.0341446 0.08 -0.25584
4 0.0341446 -0.08 -0.293698
4 0.0864594 -0.00996393 -0.341056
4 0.0864594 0.00996393 -0.321887
4 0.0523291 0.0697475 -0.252462
4 0.0523291 -0.0697475 -0.315396
4 0.0823856 -0.0298918 -0.353262
4 0.0823856 0.0298918 -0.300908
4 0.0373405 0.08 -0.255696
4 0.0373405 -0.08 -0.296954
4 0.0651106 0.06 -0.265761
4 0.0651106 -0.06 -0.3336
4 0.0887548 0 -0.332287
4 0.0558515 0.0697475 -0.249739
4 0.0558515 -0.0697475 -0.320633
4 0.074457 -0.0498197 -0.348411
4 0.074457 0.0498197 -0.278554
4 0.00128135 0.0896754 -0.244375
4 0.00128135 -0.0896754 -0.283889
4 0.040595 0.08 -0.255044
4 0.040595 -0.08 -0.300546
4 0.00386754 0.0896754 -0.24489
4 0.00386754 -0.0896754 -0.283826
4 0.00650117 0.0896754 -0.245064
4 0.00650117 -0.0896754 -0.283829
4 0.0805853 -0.04 -0.354814
4 0.0805853 0.04 -0.287864
4 0.00918311 -0.0896754 -0.283928
4 0.00918311 0.0896754 -0.245501
4 0.0119142 0.0896754 -0.24621
4 0.0119142 -0.0896754 -0.284207
4 0.0146954 0.0896754 -0.247115
4 0.0146954 -0.0896754 -0.284741
4 0.0887548 0.02 -0.30939
4 0.0887548 -0.02 -0.351893
4 0.0906078 -0.00996393 -0.344593
4 0.0906078 0.00996393 -0.321571
4 0.0439092 0.08 -0.253871
4 0.0439092 -0.08 -0.304424
4 0.0688745 0.06 -0.262439
4 0.0688745 -0.06 -0.340063
4 0.0175277 0.0896754 -0.248129
4 0.0175277 -0.0896754 -0.285563
4 0.0864594 -0.0298918 -0.358224
4 0.0864594 0.0298918 -0.29834
4 0.0594386 0.0697475 -0.246912
4 0.0594386 -0.0697475 -0.326171
4 0.0204118 0.0896754 -0.249188
4 0.0204118 -0.0896754 -0.286697
4 0.0233489 0.0896754 -0.250206
4 0.0233489 -0.0896754 -0.288146
4 0.0783853 -0.0498197 -0.355227
4 0.0783853 0.0498197 -0.275107
4 0.0472842 0.08 -0.252174
4 0.0472842 -0.08 -0.308505
4 0.0929523 0 -0.333826
4 0.0263398 0.0896754 -0.251089
4 0.0263398 -0.0896754 -0.289964
4 0.0846329 0.04 -0.28503
4 0.0846329 -0.04 -0.360807
4 0.0630915 0.0697475 -0.244167
4 0.0630915 -0.0697475 -0.332011
4 0.0727073 0.06 -0.259463
4 0.0727073 -0.06 -0.346754
4 0.0293856 0.0896754 -0.251736
4 0.0293856 -0.0896754 -0.292126
4 0.0507211 0.08 -0.250013
4 0.0507211 -0.08 -0.312795
4 0.0929523 0.02 -0.30811
4 0.0929523 -0.02 -0.356193
4 0.0948324 -0.00996393 -0.3478
4 0.0948324 0.00996393 -0.321316
4 0.0324873 0.0896754 -0.252073
4 0.0324873 -0.0896754 -0.294558
4 0.0906078 -0.0298918 -0.363295
4 0.0906078 0.0298918 -0.29597
4 0.0823856 -0.0498197 -0.36214
4 0.0823856 0.0498197 -0.271994
4 0.0356458 0.0896754 -0.252031
4 0.0356458 -0.0896754 -0.297247
4 0.0668113 0.0697475 -0.241672
4 0.0668113 -0.0697475 -0.338192
4 0.054221 0.08 -0.247516
4 0.054221 -0.08 -0.317377
4 0.0972268 0 -0.335277
4 0.0766105 0.06 -0.256843
4 0.0766105 -0.06 -0.353667
4 0.0887548 0.04 -0.28246
4 0.0887548 -0.04 -0.36679
4 0.0388623 0.0896754 -0.251556
4 0.0388623 -0.0896754 -0.300198
4 0.0577851 0.08 -0.244831
4 0.0577851 -0.08 -0.322332
4 0.0421378 0.0896754 -0.250623
4 0.0421378 -0.0896754 -0.303427
4 0.0705994 0.0697475 -0.239566
4 0.0705994 -0.0697475 -0.344752
4 0.0972268 0.02 -0.307002
4 0.0972268 -0.02 -0.360508
4 0.0948324 -0.0298918 -0.368728
4 0.0948324 0.0298918 -0.29382
4 0.0991344 -0.00996393 -0.350805
4 0.0991344 0.00996393 -0.321178
4 0.0864594 0.0498197 -0.269191
4 0.0864594 -0.0498197 -0.36913
4 0 0.1 -0.251165
4 0 -0.1 -0.287124
4 0.00256965 0.1 -0.251389
4 0.00256965 -0.1 -0.287091
4 0.00518642 0.1 -0.251758
4 0.00518642 -0.1 -0.28705
4 0.00785119 0.1 -0.25219
4 0.00785119 -0.1 -0.287086
4 0.0805853 0.06 -0.254571
4 0.0805853 -0.06 -0.360794
4 0.0454733 0.0896754 -0.249206
4 0.0454733 -0.0896754 -0.306817
4 0.0105648 0.1 -0.252892
4 0.0105648 -0.1 -0.287239
4 0.0614146 0.08 -0.242109
4 0.0614146 -0.08 -0.327705
4 0.0133283 0.1 -0.253817
4 0.0133283 -0.1 -0.287565
4 0.0929523 0.04 -0.280152
4 0.0929523 -0.04 -0.37286
4 0.0161424 0.1 -0.254878
4 0.0161424 -0.1 -0.288103
4 0.10158 0 -0.33675
4 0.0190081 0.1 -0.255969
4 0.0190081 -0.1 -0.288875
4 0.074457 0.0697475 -0.237809
4 0.074457 -0.0697475 -0.351679
4 0.0488701 0.0896754 -0.247312
4 0.0488701 -0.0896754 -0.310385
4 0.0219263 0.1 -0.256984
4 0.0219263 -0.1 -0.289897
4 0.0248981 0.1 -0.257828
4 0.0248981 -0.1 -0.291219
4 0.0651106 0.08 -0.239513
4 0.0651106 -0.08 -0.333516
4 0.0906078 0.0498197 -0.266683
4 0.0906078 -0.0498197 -0.376093
4 0.10158 0.02 -0.306123
4 0.10158 -0.02 -0.364813
4 0.0991344 0.0298918 -0.291947
4 0.0991344 -0.0298918 -0.374383
4 0.0846329 0.06 -0.252634
4 0.0846329 -0.06 -0.368103
4 0.0279244 0.1 -0.258422
4 0.0279244 -0.1 -0.29288
4 0.0523291 0.0896754 -0.245041
4 0.0523291 -0.0896754 -0.314239
4 0.103515 -0.00996393 -0.353825
4 0.103515 0.00996393 -0.321203
4 0.0310063 0.1 -0.258715
4 0.0310063 -0.1 -0.294819
4 0.0783853 0.0697475 -0.236389
4 0.0783853 -0.0697475 -0.358954
4 0.0972268 0.04 -0.278136
4 0.0972268 -0.04 -0.378998
4 0.0688745 0.08 -0.237185
4 0.0688745 -0.08 -0.339777
4 0.0558515 0.0896754 -0.242523
4 0.0558515 -0.0896754 -0.318537
4 0.0341446 0.1 -0.258673
4 0.0341446 -0.1 -0.296939
4 0.106012 0 -0.338354
4 0.0373405 0.1 -0.25827
4 0.0373405 -0.1 -0.299204
4 0.0948324 0.0498197 -0.26448
4 0.0948324 -0.0498197 -0.382956
4 0.0887548 0.06 -0.251025
4 0.0887548 -0.06 -0.375498
4 0.0594386 0.0896754 -0.239879
4 0.0594386 -0.0896754 -0.323349
4 0.103515 -0.0298918 -0.379957
4 0.103515 0.0298918 -0.290425
4 0.106012 -0.02 -0.369071
4 0.106012 0.02 -0.305531
4 0.040595 0.1 -0.25749
4 0.040595 -0.1 -0.301611
4 0.0823856 0.0697475 -0.235301
4 0.0823856 -0.0697475 -0.366563
4 0.0727073 0.08 -0.235205
4 0.0727073 -0.08 -0.346481
4 0.107977 -0.00996393 -0.356926
4 0.107977 0.00996393 -0.3215
4 0.10158 0.04 -0.276468
4 0.10158 -0.04 -0.385043
4 0.0439092 0.1 -0.256322
4 0.0439092 -0.1 -0.304195
4 0.00128135 0.109603 -0.25784
4 0.00128135 -0.109603 -0.289892
4 0.0630915 0.0896754 -0.237247
4 0.0630915 -0.0896754 -0.328725
4 0.00386754 0.109603 -0.258218
4 0.00386754 -0.109603 -0.289805
4 0.00650117 0.109603 -0.258627
4 0.00650117 -0.109603 -0.28979
4 0.00918311 0.109603 -0.259335
4 0.00918311 -0.109603 -0.28985
4 0.0119142 0.109603 -0.260289
4 0.0119142 -0.109603 -0.290027
4 0.110526 0 -0.340172
4 0.0146954 0.109603 -0.261421
4 0.0146954 -0.109603 -0.290349
4 0.0472842 0.1 -0.254769
4 0.0472842 -0.1 -0.307019
4 0.0929523 0.06 -0.249747
4 0.0929523 -0.06 -0.382864
4 0.0766105 0.08 -0.233595
4 0.0766105 -0.08 -0.353607
4 0.0991344 0.0498197 -0.262622
4 0.0991344 -0.0498197 -0.389606
4 0.0175277 0.109603 -0.26261
4 0.0175277 -0.109603 -0.290839
4 0.0864594 0.0697475 -0.23455
4 0.0864594 -0.0697475 -0.374391
4 0.0204118 -0.109603 -0.291501
4 0.0204118 0.109603 -0.263704
4 0.0668113 0.0896754 -0.234775
4 0.0668113 -0.0896754 -0.334656
4 0.107977 -0.0298918 -0.385324
4 0.107977 0.0298918 -0.289268
4 0.0233489 0.109603 -0.26459
4 0.0233489 -0.109603 -0.292374
4 0.0507211 0.1 -0.252871
4 0.0507211 -0.1 -0.310159
4 0.110526 -0.02 -0.373256
4 0.110526 0.02 -0.305265
4 0.0263398 0.109603 -0.265172
4 0.0263398 -0.109603 -0.293555
4 0.11252 -0.00996393 -0.360158
4 0.11252 0.00996393 -0.322176
4 0.106012 -0.04 -0.390841
4 0.106012 0.04 -0.2752
4 0.0293856 0.109603 -0.265423
4 0.0293856 -0.109603 -0.295069
4 0.0805853 0.08 -0.232368
4 0.0805853 -0.08 -0.361129
4 0.054221 0.1 -0.250709
4 0.054221 -0.1 -0.313708
4 0.0705994 0.0896754 -0.232578
4 0.0705994 -0.0896754 -0.341117
4 0.0972268 0.06 -0.248824
4 0.0972268 -0.06 -0.390089
4 0.0324873 0.109603 -0.265344
4 0.0324873 -0.109603 -0.296731
4 0.0906078 0.0697475 -0.234152
4 0.0906078 -0.0697475 -0.382287
4 0.103515 -0.0498197 -0.395944
4 0.103515 0.0498197 -0.261178
4 0.115123 0 -0.342242
4 0.0356458 0.109603 -0.264941
4 0.0356458 -0.109603 -0.298438
4 0.0577851 0.1 -0.248377
4 0.0577851 -0.1 -0.317753
4 0.0388623 0.109603 -0.26422
4 0.0388623 -0.109603 -0.300159
4 0.11252 -0.0298918 -0.390393
4 0.11252 0.0298918 -0.288394
4 0.0846329 0.08 -0.231531
4 0.0846329 -0.08 -0.36899
4 0.074457 0.0896754 -0.230752
4 0.074457 -0.0896754 -0.348077
4 0.115123 -0.02 -0.37734
4 0.115123 0.02 -0.305326
4 0.0614146 0.1 -0.245982
4 0.0614146 -0.1 -0.32234
4 0.0421378 0.109603 -0.263189
4 0.0421378 -0.109603 -0.301909
4 0.110526 -0.04 -0.396298
4 0.110526 0.04 -0.274334
4 0.117146 -0.00996393 -0.363521
4 0.117146 0.00996393 -0.323226
4 0.0948324 0.0697475 -0.234107
4 0.0948324 -0.0697475 -0.390118
4 0.10158 0.06 -0.248291
4 0.10158 -0.06 -0.397042
4 0.0454733 0.109603 -0.261853
4 0.0454733 -0.109603 -0.30391
4 0.107977 -0.0498197 -0.401878
4 0.107977 0.0498197 -0.2602
4 0.0783853 0.0896754 -0.229339
4 0.0783853 -0.0896754 -0.355518
4 0.0651106 0.1 -0.243638
4 0.0651106 -0.1 -0.327486
4 0.0887548 0.08 -0.231092
4 0.0887548 -0.08 -0.377091
4 0.119804 -3.70074e-17 -0.3445
4 0 0.12 -0.261567
4 0 -0.12 -0.293605
4 0.0488701 0.109603 -0.260232
4 0.0488701 -0.109603 -0.306291
4 0.00256965 0.12 -0.26166
4 0.00256965 -0.12 -0.293565
4 0.00518642 0.12 -0.261979
4 0.00518642 -0.12 -0.293502
4 0.00785119 0.12 -0.262567
4 0.00785119 -0.12 -0.293472
4 0.0105648 0.12 -0.263408
4 0.0105648 -0.12 -0.293463
4 0.0133283 0.12 -0.264436
4 0.0133283 -0.12 -0.293476
4 0.117146 -0.0298918 -0.39509
4 0.117146 0.0298918 -0.287799
4 0.0161424 0.12 -0.265553
4 0.0161424 -0.12 -0.293522
4 0.0991344 0.0697475 -0.234467
4 0.0991344 -0.0697475 -0.397755
4 0.0688745 0.1 -0.24145
4 0.0688745 -0.1 -0.333183
4 0.0523291 0.109603 -0.258366
4 0.0523291 -0.109603 -0.309092
4 0.119804 -0.02 -0.381276
4 0.119804 0.02 -0.305707
4 0.0190081 0.12 -0.266642
4 0.0190081 -0.12 -0.293638
4 0.0823856 0.0896754 -0.228363
4 0.0823856 -0.0896754 -0.363385
4 0.106012 -0.06 -0.403575
4 0.106012 0.06 -0.248176
4 0.115123 -0.04 -0.401348
4 0.115123 0.04 -0.273858
4 0.0219263 0.12 -0.267558
4 0.0219263 -0.12 -0.293894
4 0.121857 -0.00996393 -0.366936
4 0.121857 0.00996393 -0.324473
4 0.0248981 0.12 -0.268198
4 0.0248981 -0.12 -0.294383
4 0.0929523 0.08 -0.231051
4 0.0929523 -0.08 -0.385308
4 0.0558515 0.109603 -0.256311
4 0.0558515 -0.109603 -0.312388
4 0.11252 0.0498197 -0.259716
4 0.11252 -0.0498197 -0.407341
4 0.0279244 0.12 -0.268514
4 0.0279244 -0.12 -0.295177
4 0.0727073 0.1 -0.239503
4 0.0727073 -0.1 -0.339402
4 0.0310063 0.12 -0.268481
4 0.0310063 -0.12 -0.296245
4 0.0864594 0.0896754 -0.227825
4 0.0864594 -0.0896754 -0.371627
4 0.124571 0 -0.346841
4 0.0594386 0.109603 -0.254143
4 0.0594386 -0.109603 -0.316226
4 0.0341446 0.12 -0.268111
4 0.0341446 -0.12 -0.297478
4 0.103515 -0.0697475 -0.405005
4 0.103515 0.0697475 -0.235226
4 0.121857 -0.0298918 -0.399378
4 0.121857 0.0298918 -0.287638
4 0.0373405 0.12 -0.267449
4 0.0373405 -0.12 -0.298807
4 0.110526 -0.06 -0.409561
4 0.110526 0.06 -0.248496
4 0.0972268 0.08 -0.231407
4 0.0972268 -0.08 -0.393499
4 0.0766105 0.1 -0.237854
4 0.0766105 -0.1 -0.346116
4 0.124571 -0.02 -0.385011
4 0.124571 0.02 -0.306382
4 0.119804 -0.04 -0.405948
4 0.119804 0.04 -0.273818
4 0.0630915 0.109603 -0.251951
4 0.0630915 -0.109603 -0.320621
4 0.040595 0.12 -0.266539
4 0.040595 -0.12 -0.300256
4 0.126655 -0.00996393 -0.370309
4 0.126655 0.00996393 -0.325838
4 0.117146 0.0498197 -0.259745
4 0.117146 -0.0498197 -0.412302
4 0.0906078 0.0896754 -0.227745
4 0.0906078 -0.0896754 -0.380176
4 0.0439092 0.12 -0.265399
4 0.0439092 -0.12 -0.301942
4 0.0668113 0.109603 -0.249823
4 0.0668113 -0.109603 -0.325585
4 0.0805853 0.1 -0.236542
4 0.0805853 -0.1 -0.353278
4 0.107977 -0.0697475 -0.411664
4 0.107977 0.0697475 -0.23638
4 0.0472842 0.12 -0.26403
4 0.0472842 -0.12 -0.303976
4 0.10158 0.08 -0.232163
4 0.10158 -0.08 -0.401501
4 0.129426 0 -0.349237
4 0.00128135 0.129531 -0.265144
4 0.00128135 -0.129531 -0.296783
4 0.00386754 0.129531 -0.265144
4 0.00386754 -0.129531 -0.296692
4 0.00650117 0.129531 -0.265636
4 0.00650117 -0.129531 -0.296632
4 0.115123 -0.06 -0.414912
4 0.115123 0.06 -0.249268
4 0.00918311 0.129531 -0.266382
4 0.00918311 -0.129531 -0.296534
4 0.0119142 0.129531 -0.267338
4 0.0119142 -0.129531 -0.296372
4 0.126655 -0.0298918 -0.403257
4 0.126655 0.0298918 -0.287912
4 0.0507211 0.12 -0.262434
4 0.0507211 -0.12 -0.306399
4 0.0146954 0.129531 -0.268405
4 0.0146954 -0.129531 -0.296115
4 0.0705994 0.109603 -0.247828
4 0.0705994 -0.109603 -0.331101
4 0.0948324 0.0896754 -0.228087
4 0.0948324 -0.0896754 -0.388873
4 0.0175277 0.129531 -0.269483
4 0.0175277 -0.129531 -0.295789
4 0.124571 -0.04 -0.41007
4 0.124571 0.04 -0.274265
4 0.129426 -0.02 -0.388498
4 0.129426 0.02 -0.307356
4 0.0846329 0.1 -0.235591
4 0.0846329 -0.1 -0.360811
4 0.0204118 0.129531 -0.270473
4 0.0204118 -0.129531 -0.295488
4 0.0233489 0.129531 -0.271172
4 0.0233489 -0.129531 -0.295348
4 0.121857 -0.0498197 -0.416736
4 0.121857 0.0498197 -0.260303
4 0.054221 0.12 -0.260634
4 0.054221 -0.12 -0.309242
4 0.131541 -0.00996393 -0.373531
4 0.131541 0.00996393 -0.327491
4 0.0263398 0.129531 -0.271568
4 0.0263398 -0.129531 -0.295461
4 0.11252 -0.0697475 -0.417571
4 0.11252 0.0697475 -0.237933
4 0.074457 0.109603 -0.246027
4 0.074457 -0.109603 -0.337131
4 0.106012 -0.08 -0.40911
4 0.106012 0.08 -0.233307
4 0.0293856 0.129531 -0.271605
4 0.0293856 -0.129531 -0.295886
4 0.0577851 0.12 -0.258682
4 0.0577851 -0.12 -0.312536
4 0.0324873 0.129531 -0.271267
4 0.0324873 -0.129531 -0.296595
4 0.0991344 0.0896754 -0.228838
4 0.0991344 -0.0896754 -0.397574
4 0.0887548 0.1 -0.235017
4 0.0887548 -0.1 -0.368607
4 0.119804 -0.06 -0.419581
4 0.119804 0.06 -0.250508
4 0.0356458 0.129531 -0.270617
4 0.0356458 -0.129531 -0.297467
4 0.134369 0 -0.351701
4 0.0783853 0.109603 -0.244451
4 0.0783853 -0.109603 -0.343641
4 0.0614146 0.12 -0.25665
4 0.0614146 -0.12 -0.31629
4 0.131541 -0.0298918 -0.406741
4 0.131541 0.0298918 -0.28854
4 0.0388623 0.129531 -0.269753
4 0.0388623 -0.129531 -0.298492
4 0.129426 -0.04 -0.413685
4 0.129426 0.04 -0.275199
4 0.134369 -0.02 -0.391687
4 0.134369 0.02 -0.308682
4 0.126655 -0.0498197 -0.420598
4 0.126655 0.0498197 -0.261425
4 0.0421378 0.129531 -0.268728
4 0.0421378 -0.129531 -0.299805
4 0.117146 -0.0697475 -0.422638
4 0.117146 0.0697475 -0.239898
4 0.110526 -0.08 -0.416128
4 0.110526 0.08 -0.234824
4 0.0651106 0.12 -0.254611
4 0.0651106 -0.12 -0.320488
4 0.0929523 0.1 -0.234822
4 0.0929523 -0.1 -0.376562
4 0.136516 -0.00996393 -0.376516
4 0.136516 0.00996393 -0.329516
4 0.103515 0.0896754 -0.229982
4 0.103515 -0.0896754 -0.406084
4 0.0823856 0.109603 -0.243153
4 0.0823856 -0.109603 -0.350563
4 0.0454733 0.129531 -0.267548
4 0.0454733 -0.129531 -0.3015
4 0.124571 -0.06 -0.423538
4 0.124571 0.06 -0.252241
4 0.0688745 0.12 -0.25263
4 0.0688745 -0.12 -0.325088
4 0.0488701 0.129531 -0.266184
4 0.0488701 -0.129531 -0.303578
4 0.139403 0 -0.354194
4 0.0972268 0.1 -0.234993
4 0.0972268 -0.1 -0.384575
4 0.0864594 0.109603 -0.242156
4 0.0864594 -0.109603 -0.357747
4 0.0523291 0.129531 -0.264611
4 0.0523291 -0.129531 -0.306038
4 0.136516 -0.0298918 -0.409825
4 0.136516 0.0298918 -0.289559
4 0 0.14 -0.26187
4 0 -0.14 -0.302169
4 0.00256965 0.14 -0.261801
4 0.00256965 -0.14 -0.302123
4 0.00518642 0.14 -0.26191
4 0.00518642 -0.14 -0.302042
4 0.115123 -0.08 -0.4224
4 0.115123 0.08 -0.236707
4 0.134369 -0.04 -0.416747
4 0.134369 0.04 -0.276637
4 0.00785119 0.14 -0.262407
4 0.00785119 -0.14 -0.301945
4 0.0727073 0.12 -0.250765
4 0.0727073 -0.12 -0.330038
4 0.107977 -0.0896754 -0.414174
4 0.107977 0.0896754 -0.231496
4 0.0105648 0.14 -0.263157
4 0.0105648 -0.14 -0.301738
4 0.121857 -0.0697475 -0.426823
4 0.121857 0.0697475 -0.242295
4 0.0133283 0.14 -0.264071
4 0.0133283 -0.14 -0.301357
4 0.131541 -0.0498197 -0.423814
4 0.131541 0.0498197 -0.263151
4 0.139403 -0.02 -0.394519
4 0.139403 0.02 -0.310395
4 0.0161424 0.14 -0.26502
4 0.0161424 -0.14 -0.300793
4 0.0558515 0.129531 -0.262855
4 0.0558515 -0.129531 -0.308886
4 0.0190081 0.14 -0.265898
4 0.0190081 -0.14 -0.30015
4 0.0219263 0.14 -0.266609
4 0.0219263 -0.14 -0.299587
4 0.141583 -0.00996393 -0.379219
4 0.141583 0.00996393 -0.331808
4 0.0248981 0.14 -0.267076
4 0.0248981 -0.14 -0.299248
4 0.0906078 0.109603 -0.241479
4 0.0906078 -0.109603 -0.365042
4 0.0766105 0.12 -0.249057
4 0.0766105 -0.12 -0.3353
4 0.0594386 0.129531 -0.260973
4 0.0594386 -0.129531 -0.312124
4 0.10158 0.1 -0.235518
4 0.10158 -0.1 -0.392542
4 0.129426 -0.06 -0.426761
4 0.129426 0.06 -0.254493
4 0.0279244 0.14 -0.267264
4 0.0279244 -0.14 -0.299265
4 0.0310063 0.14 -0.267162
4 0.0310063 -0.14 -0.299702
4 0.11252 -0.0896754 -0.421636
4 0.11252 0.0896754 -0.233353
4 0.119804 -0.08 -0.427812
4 0.119804 0.08 -0.238954
4 0.0630915 -0.129531 -0.315723
4 0.0630915 0.129531 -0.259032
4 0.0341446 0.14 -0.266809
4 0.0341446 -0.14 -0.300478
4 0.14453 -3.70074e-17 -0.356627
4 0.0805853 0.12 -0.247548
4 0.0805853 -0.12 -0.340829
4 0.126655 -0.0697475 -0.430128
4 0.126655 0.0697475 -0.245149
4 0.141583 -0.0298918 -0.412414
4 0.141583 0.0298918 -0.291079
4 0.0373405 0.14 -0.266276
4 0.0373405 -0.14 -0.301463
4 0.0948324 0.109603 -0.241127
4 0.0948324 -0.109603 -0.3724
4 0.139403 -0.04 -0.419173
4 0.139403 0.04 -0.278648
4 0.136516 0.0498197 -0.26555
4 0.136516 -0.0498197 -0.426281
4 0.106012 -0.1 -0.400344
4 0.106012 0.1 -0.236379
4 0.0668113 0.129531 -0.257088
4 0.0668113 -0.129531 -0.319618
4 0.040595 0.14 -0.265636
4 0.040595 -0.14 -0.302613
4 0.14453 -0.02 -0.396859
4 0.14453 0.02 -0.312502
4 0.0439092 0.14 -0.26493
4 0.0439092 -0.14 -0.304021
4 0.0846329 0.12 -0.246279
4 0.0846329 -0.12 -0.346544
4 0.146742 -0.00996393 -0.381526
4 0.146742 0.00996393 -0.334276
4 0.134369 -0.06 -0.429233
4 0.134369 0.06 -0.257283
4 0.0705994 0.129531 -0.255191
4 0.0705994 -0.129531 -0.323715
4 0.117146 -0.0896754 -0.428292
4 0.117146 0.0896754 -0.235528
4 0.0472842 0.14 -0.264146
4 0.0472842 -0.14 -0.305795
4 0.0991344 0.109603 -0.241093
4 0.0991344 -0.109603 -0.379773
4 0.124571 -0.08 -0.432286
4 0.124571 0.08 -0.241568
4 0.131541 0.0697475 -0.248465
4 0.131541 -0.0697475 -0.432594
4 0.0507211 0.14 -0.263249
4 0.0507211 -0.14 -0.307962
4 0.110526 -0.1 -0.407845
4 0.110526 0.1 -0.237551
4 0.0887548 0.12 -0.245282
4 0.0887548 -0.12 -0.352353
4 0.074457 0.129531 -0.253388
4 0.074457 -0.129531 -0.327959
4 0.00128135 0.149459 -0.258496
4 0.00128135 -0.149459 -0.306907
4 0.00386754 -0.149459 -0.306798
4 0.00386754 0.149459 -0.258217
4 0.00650117 0.149459 -0.258445
4 0.00650117 -0.149459 -0.306736
4 0.00918311 0.149459 -0.258963
4 0.00918311 -0.149459 -0.306565
4 0.14975 0 -0.358899
4 0.146742 -0.0298918 -0.414244
4 0.146742 0.0298918 -0.293213
4 0.0119142 0.149459 -0.259727
4 0.0119142 -0.149459 -0.306174
4 0.14453 -0.04 -0.420808
4 0.14453 0.04 -0.281294
4 0.141583 -0.0498197 -0.427874
4 0.141583 0.0498197 -0.268665
4 0.054221 0.14 -0.262228
4 0.054221 -0.14 -0.31048
4 0.0146954 0.149459 -0.260582
4 0.0146954 -0.149459 -0.305479
4 0.0175277 0.149459 -0.261371
4 0.0175277 -0.149459 -0.304543
4 0.103515 -0.109603 -0.387131
4 0.103515 0.109603 -0.241365
4 0.0204118 0.149459 -0.26203
4 0.0204118 -0.149459 -0.303588
4 0.14975 -0.02 -0.398498
4 0.14975 0.02 -0.315048
4 0.0233489 0.149459 -0.26253
4 0.0233489 -0.149459 -0.302788