# p  POINT_DATA 90431
# x  y  z  p
5 0 0 0.0579829
5 0.00256965 0 0.057919
5 0.00518642 0 0.0578333
5 0.00785119 0 0.0578358
5 0.00128482 0.01 0.0580927
5 0.00128482 -0.01 0.0578731
5 0.0105648 0 0.0579569
5 0.00387803 0.01 0.0580048
5 0.00387803 -0.01 0.0577055
5 0.00651881 0.01 0.0580415
5 0.00651881 -0.01 0.0575813
5 0.0133283 0 0.0582343
5 0.00920802 0.01 0.0582043
5 0.00920802 -0.01 0.0575163
5 0.0119465 0.01 0.0585427
5 0.0119465 -0.01 0.0575644
5 0.0161424 0 0.0586866
5 0.0147353 0.01 0.0590627
5 0.0147353 -0.01 0.0577677
5 0.0190081 0 0.0593054
5 0 0.02 0.0564911
5 0 -0.02 0.0582725
5 0.00256965 0.02 0.0564891
5 0.00256965 -0.02 0.058201
5 0.0175752 0.01 0.0597398
5 0.0175752 -0.01 0.0581765
5 0.00518642 0.02 0.0565684
5 0.00518642 -0.02 0.0580787
5 0.00785119 0.02 0.056811
5 0.00785119 -0.02 0.0580057
5 0.0219263 0 0.0600256
5 0.0105648 0.02 0.0572276
5 0.0105648 -0.02 0.0580164
5 0.0204672 0.01 0.0605167
5 0.0204672 -0.01 0.0587887
5 0.0133283 0.02 0.0578193
5 0.0133283 -0.02 0.0581581
5 0.0248981 0 0.0607485
5 0.0234122 0.01 0.0612937
5 0.0234122 -0.01 0.0595035
5 0.0161424 0.02 0.0585447
5 0.0161424 -0.02 0.058468
5 0.0190081 0.02 0.0593372
5 0.0190081 -0.02 0.0589527
5 0.0279244 0 0.0613654
5 0.0264113 0.01 0.0619697
5 0.0264113 -0.01 0.0602275
5 0.0219263 0.02 0.0601112
5 0.0219263 -0.02 0.0595602
5 0.00128482 0.03 0.0548894
5 0.00128482 -0.03 0.0586719
5 0.00387803 0.03 0.0549695
5 0.00387803 -0.03 0.0585535
5 0.00651881 0.03 0.055258
5 0.00651881 -0.03 0.0584745
5 0.0310063 0 0.0617756
5 0.0294653 0.01 0.0624522
5 0.0294653 -0.01 0.0608124
5 0.00920802 0.03 0.0557403
5 0.00920802 -0.03 0.0584508
5 0.0248981 0.02 0.0607744
5 0.0248981 -0.02 0.0601994
5 0.0119465 0.03 0.0564233
5 0.0119465 -0.03 0.0585342
5 0.0147353 0.03 0.0572486
5 0.0147353 -0.03 0.0587664
5 0.0325754 0.01 0.062656
5 0.0325754 -0.01 0.061182
5 0.0341446 0 0.0619159
5 0.0279244 0.02 0.0612457
5 0.0279244 -0.02 0.0607625
5 0.0175752 0.03 0.0581279
5 0.0175752 -0.03 0.0591616
5 0.0204672 0.03 0.0589647
5 0.0204672 -0.03 0.0596843
5 0.0310063 0.02 0.0614639
5 0.0310063 -0.02 0.0611544
5 0.0357425 0.01 0.062545
5 0.0357425 -0.01 0.0612806
5 0.0373405 0 0.0617601
5 0.0234122 0.03 0.0596696
5 0.0234122 -0.03 0.0602645
5 0.0341446 0.02 0.0614027
5 0.0341446 -0.02 0.0613179
5 0.0264113 0.03 0.0601647
5 0.0264113 -0.03 0.0608023
5 0 0.04 0.0485457
5 0 -0.04 0.0601072
5 0.00256965 0.04 0.0486011
5 0.00256965 -0.04 0.060072
5 0.0389677 0.01 0.0621215
5 0.0389677 -0.01 0.0610933
5 0.00518642 0.04 0.0487667
5 0.00518642 -0.04 0.0600263
5 0.040595 0 0.0613196
5 0.00785119 0.04 0.04904
5 0.00785119 -0.04 0.0600337
5 0.0105648 0.04 0.0494246
5 0.0105648 -0.04 0.0601144
5 0.0294653 0.03 0.0603961
5 0.0294653 -0.03 0.0612078
5 0.0133283 0.04 0.0499109
5 0.0133283 -0.04 0.0602971
5 0.0373405 0.02 0.0610743
5 0.0373405 -0.02 0.061226
5 0.0161424 0.04 0.0504581
5 0.0161424 -0.04 0.0605939
5 0.0422521 0.01 0.0614271
5 0.0422521 -0.01 0.0606363
5 0.0439092 0 0.0606287
5 0.0325754 0.03 0.0603513
5 0.0325754 -0.03 0.0614154
5 0.0190081 0.04 0.051012
5 0.0190081 -0.04 0.0609849
5 0.040595 0.02 0.0605174
5 0.040595 -0.02 0.0608794
5 0.0219263 0.04 0.0515186
5 0.0219263 -0.04 0.0614168
5 0.0357425 0.03 0.0600585
5 0.0357425 -0.03 0.0613935
5 0.0455967 0.01 0.0605185
5 0.0455967 -0.01 0.0599329
5 0.0248981 0.04 0.0519359
5 0.0248981 -0.04 0.061816
5 0.0472842 0 0.0597259
5 0.0439092 0.02 0.0597846
5 0.0439092 -0.02 0.0602913
5 0.0279244 0.04 0.052242
5 0.0279244 -0.04 0.0621079
5 0.0389677 0.03 0.0595719
5 0.0389677 -0.03 0.0611365
5 0.0490026 0.01 0.0594486
5 0.0490026 -0.01 0.0590034
5 0.00128482 0.05 0.042202
5 0.00128482 -0.05 0.0615425
5 0.00387803 0.05 0.0423435
5 0.00387803 -0.05 0.0615201
5 0.00651881 0.05 0.042496
5 0.00651881 -0.05 0.0615571
5 0.0310063 0.04 0.0524428
5 0.0310063 -0.04 0.0622368
5 0.0507211 0 0.0586416
5 0.00920802 0.05 0.0426657
5 0.00920802 -0.05 0.0616523
5 0.0472842 0.02 0.0589285
5 0.0472842 -0.02 0.0594746
5 0.0119465 0.05 0.0428692
5 0.0119465 -0.05 0.0618205
5 0.0422521 0.03 0.0589488
5 0.0422521 -0.03 0.0606514
5 0.0147353 0.05 0.0431027
5 0.0147353 -0.05 0.0620674
5 0.0341446 0.04 0.0525657
5 0.0341446 -0.04 0.0621733
5 0.0175752 0.05 0.0433535
5 0.0175752 -0.05 0.0623804
5 0.052471 0.01 0.058253
5 0.052471 -0.01 0.0578613
5 0.0204672 0.05 0.0436021
5 0.0204672 -0.05 0.0627135
5 0.054221 0 0.0573942
5 0.0507211 0.02 0.0579897
5 0.0507211 -0.02 0.058438
5 0.0455967 0.03 0.0582438
5 0.0455967 -0.03 0.0599445
5 0.0373405 0.04 0.0526644
5 0.0373405 -0.04 0.0619097
5 0.0234122 0.05 0.043838
5 0.0234122 -0.05 0.063005
5 0.0264113 0.05 0.0440712
5 0.0264113 -0.05 0.0631923
5 0.056003 0.01 0.0569481
5 0.056003 -0.01 0.0565141
5 0.040595 0.04 0.0528091
5 0.040595 -0.04 0.0614485
5 0.0490026 0.03 0.0575029
5 0.0490026 -0.03 0.0590174
5 0.0577851 0 0.0559917
5 0.054221 0.02 0.0569903
5 0.054221 -0.02 0.0571875
5 0.0294653 0.05 0.0443361
5 0.0294653 -0.05 0.0632291
5 0.0439092 0.04 0.0530351
5 0.0439092 -0.04 0.0607927
5 0.0325754 0.05 0.0446877
5 0.0325754 -0.05 0.0630948
5 0 0.06 0.0345489
5 0 -0.06 0.0623659
5 0.00256965 0.06 0.0345707
5 0.00256965 -0.06 0.0623572
5 0.00518642 0.06 0.0345649
5 0.00518642 -0.06 0.0623777
5 0.0595998 0.01 0.0555363
5 0.0595998 -0.01 0.0549677
5 0.052471 0.03 0.0567541
5 0.052471 -0.03 0.0578696
5 0.00785119 0.06 0.0344738
5 0.00785119 -0.06 0.0624651
5 0.0105648 0.06 0.03433
5 0.0105648 -0.06 0.062611
5 0.0577851 0.02 0.0559351
5 0.0577851 -0.02 0.0557287
5 0.0614146 0 0.0544355
5 0.0357425 0.05 0.0451652
5 0.0357425 -0.05 0.0627895
5 0.0133283 0.06 0.0341758
5 0.0133283 -0.06 0.0628128
5 0.0472842 0.04 0.0533283
5 0.0472842 -0.04 0.059942
5 0.0161424 0.06 0.0340607
5 0.0161424 -0.06 0.063054
5 0.0190081 0.06 0.0340376
5 0.0190081 -0.06 0.0632988
5 0.0389677 0.05 0.0458618
5 0.0389677 -0.05 0.0623189
5 0.056003 0.03 0.0560058
5 0.056003 -0.03 0.0565047
5 0.0219263 0.06 0.034159
5 0.0219263 -0.06 0.0634981
5 0.0632626 0.01 0.05401
5 0.0632626 -0.01 0.0532274
5 0.0614146 0.02 0.0548147
5 0.0614146 -0.02 0.0540672
5 0.0507211 0.04 0.05365
5 0.0507211 -0.04 0.0588957
5 0.0248981 0.06 0.0345019
5 0.0248981 -0.06 0.0636033
5 0.0651106 0 0.0527234
5 0.0422521 0.05 0.046854
5 0.0422521 -0.05 0.061687
5 0.0279244 0.06 0.0351418
5 0.0279244 -0.06 0.0635782
5 0.0595998 0.03 0.0552498
5 0.0595998 -0.03 0.0549279
5 0.054221 0.04 0.0539594
5 0.054221 -0.04 0.057655
5 0.0310063 0.06 0.0361337
5 0.0310063 -0.06 0.0634071
5 0.0455967 0.05 0.0480937
5 0.0455967 -0.05 0.0608879
5 0.0669925 0.01 0.0523588
5 0.0669925 -0.01 0.051297
5 0.0651106 0.02 0.0536109
5 0.0651106 -0.02 0.0522085
5 0.0688745 0 0.0508503
5 0.0341446 0.06 0.0375222
5 0.0341446 -0.06 0.0630903
5 0.0490026 0.05 0.0494727
5 0.0490026 -0.05 0.0599178
5 0.00128482 0.07 0.0268957
5 0.00128482 -0.07 0.0631893
5 0.0632626 0.03 0.0544622
5 0.0632626 -0.03 0.0531453
5 0.00387803 0.07 0.0268417
5 0.00387803 -0.07 0.0631769
5 0.0577851 0.04 0.0542215
5 0.0577851 -0.04 0.0562228
5 0.00651881 0.07 0.0265784
5 0.00651881 -0.07 0.0632567
5 0.00920802 0.07 0.026155
5 0.00920802 -0.07 0.0633943
5 0.0373405 0.06 0.0393099
5 0.0373405 -0.06 0.0626329
5 0.0119465 0.07 0.0256302
5 0.0119465 -0.07 0.0635769
5 0.0707909 -0.01 0.0491786
5 0.0707909 0.01 0.0505663
5 0.0147353 0.07 0.025101
5 0.0147353 -0.07 0.0637864
5 0.0688745 -0.02 0.0501597
5 0.0688745 0.02 0.052301
5 0.0175752 0.07 0.0246856
5 0.0175752 -0.07 0.063982
5 0.040595 0.06 0.0414476
5 0.040595 -0.06 0.0620386
5 0.052471 0.05 0.0508703
5 0.052471 -0.05 0.0587776
5 0.0727073 0 0.0488071
5 0.0204672 0.07 0.0245091
5 0.0204672 -0.07 0.0641192
5 0.0614146 0.04 0.0543988
5 0.0614146 -0.04 0.0546038
5 0.0669925 0.03 0.053612
5 0.0669925 -0.03 0.0511638
5 0.0234122 0.07 0.0246869
5 0.0234122 -0.07 0.0641549
5 0.0439092 0.06 0.0438425
5 0.0439092 -0.06 0.0613057
5 0.0264113 0.07 0.0254118
5 0.0264113 -0.07 0.0640611
5 0.056003 0.05 0.0522074
5 0.056003 -0.05 0.0574677
5 0.0746589 -0.01 0.0468962
5 0.0746589 0.01 0.0485865
5 0.0727073 -0.02 0.0479361
5 0.0727073 0.02 0.0508534
5 0.0294653 0.07 0.0267484
5 0.0294653 -0.07 0.0638305
5 0.0472842 0.06 0.0463766
5 0.0472842 -0.06 0.0604297
5 0.0651106 -0.04 0.052805
5 0.0651106 0.04 0.0544503
5 0.0766105 0 0.0465831
5 0.0707909 -0.03 0.0489987
5 0.0707909 0.03 0.0526664
5 0.0325754 0.07 0.0287631
5 0.0325754 -0.07 0.0634741
5 0.0595998 0.05 0.053423
5 0.0595998 -0.05 0.0559903
5 0.0507211 0.06 0.0489257
5 0.0507211 -0.06 0.0594084
5 0.0357425 0.07 0.0314734
5 0.0357425 -0.07 0.0630026
5 0.0766105 -0.02 0.0455483
5 0.0766105 0.02 0.0492394
5 0.0785979 -0.01 0.0444337
5 0.0785979 0.01 0.0464151
5 0.0688745 -0.04 0.0508361
5 0.0688745 0.04 0.0543343
5 0 0.08 0.0301069
5 0 -0.08 0.0623662
5 0.00256965 0.08 0.0300526
5 0.00256965 -0.08 0.0623512
5 0.0389677 0.07 0.0347396
5 0.0389677 -0.07 0.0624206
5 0.00518642 0.08 0.0298761
5 0.00518642 -0.08 0.0623664
5 0.00785119 0.08 0.0295837
5 0.00785119 -0.08 0.0624535
5 0.0746589 -0.03 0.0466702
5 0.0746589 0.03 0.0515938
5 0.0805853 0 0.0441692
5 0.0632626 0.05 0.0544603
5 0.0632626 -0.05 0.054351
5 0.0105648 0.08 0.0292223
5 0.0105648 -0.08 0.0625866
5 0.054221 0.06 0.0513713
5 0.054221 -0.06 0.0582413
5 0.0133283 0.08 0.0288571
5 0.0133283 -0.08 0.0627465
5 0.0161424 0.08 0.0285718
5 0.0161424 -0.08 0.0629005
5 0.0422521 0.07 0.0383358
5 0.0422521 -0.07 0.0617277
5 0.0190081 0.08 0.0284585
5 0.0190081 -0.08 0.0630068
5 0.0219263 0.08 0.028608
5 0.0219263 -0.08 0.0630267
5 0.0727073 -0.04 0.0487091
5 0.0727073 0.04 0.0540115
5 0.0805853 -0.02 0.0429903
5 0.0805853 0.02 0.047445
5 0.0826091 -0.01 0.041762
5 0.0826091 0.01 0.044065
5 0.0577851 0.06 0.0536143
5 0.0577851 -0.06 0.0569292
5 0.0455967 0.07 0.0420871
5 0.0455967 -0.07 0.0609199
5 0.0669925 -0.05 0.0525592
5 0.0669925 0.05 0.0552665
5 0.0248981 0.08 0.0291386
5 0.0248981 -0.08 0.0629332
5 0.0785979 -0.03 0.0441923
5 0.0785979 0.03 0.0503614
5 0.0846329 0 0.0415606
5 0.0279244 0.08 0.0301707
5 0.0279244 -0.08 0.0627163
5 0.0490026 0.07 0.0458536
5 0.0490026 -0.07 0.0599931
5 0.0310063 0.08 0.0317829
5 0.0310063 -0.08 0.0623859
5 0.0614146 -0.06 0.0554745
5 0.0614146 0.06 0.0555783
5 0.0766105 -0.04 0.0464343
5 0.0766105 0.04 0.0534446
5 0.0707909 -0.05 0.0506221
5 0.0707909 0.05 0.0557921
5 0.0846329 -0.02 0.0402604
5 0.0846329 0.02 0.0454502
5 0.0341446 0.08 0.0340015
5 0.0341446 -0.08 0.0619554
5 0.0866939 -0.01 0.0388978
5 0.0866939 0.01 0.0415166
5 0.052471 0.07 0.0495067
5 0.052471 -0.07 0.0589449
5 0.0826091 -0.03 0.0415724
5 0.0826091 0.03 0.0489378
5 0.0373405 0.08 0.0367591
5 0.0373405 -0.08 0.0614273
5 0.0651106 -0.06 0.0538821
5 0.0651106 0.06 0.057194
5 0.0887548 0 0.0387531
5 0.056003 0.07 0.0529014
5 0.056003 -0.07 0.0577748
5 0.040595 0.08 0.0399097
5 0.040595 -0.08 0.0607993
5 0.0746589 -0.05 0.0485446
5 0.0746589 0.05 0.0559934
5 0.0805853 -0.04 0.0440179
5 0.0805853 0.04 0.0525993
5 0.00128482 0.09 0.033318
5 0.00128482 -0.09 0.0615432
5 0.00387803 0.09 0.0331548
5 0.00387803 -0.09 0.0614955
5 0.00651881 0.09 0.0329295
5 0.00651881 -0.09 0.0615368
5 0.00920802 0.09 0.032672
5 0.00920802 -0.09 0.0616265
5 0.0119465 0.09 0.032432
5 0.0119465 -0.09 0.0617488
5 0.0887548 -0.02 0.0373593
5 0.0887548 0.02 0.0432283
5 0.0147353 0.09 0.0322653
5 0.0147353 -0.09 0.061874
5 0.0439092 0.08 0.0432901
5 0.0439092 -0.08 0.0600672
5 0.0688745 -0.06 0.0521567
5 0.0688745 0.06 0.0583984
5 0.0908536 -0.01 0.0358369
5 0.0908536 0.01 0.0387601
5 0.0175752 0.09 0.0322352
5 0.0175752 -0.09 0.0619598
5 0.0866939 -0.03 0.0388082
5 0.0866939 0.03 0.0472805
5 0.0595998 0.07 0.0559262
5 0.0595998 -0.07 0.0564834
5 0.0204672 0.09 0.0324039
5 0.0204672 -0.09 0.0619663
5 0.0472842 0.08 0.046753
5 0.0472842 -0.08 0.0592264
5 0.0929523 0 0.0357355
5 0.0234122 0.09 0.0328321
5 0.0234122 -0.09 0.0618664
5 0.0785979 -0.05 0.0463292
5 0.0785979 0.05 0.0558295
5 0.0846329 -0.04 0.0414613
5 0.0846329 0.04 0.051445
5 0.0264113 0.09 0.033624
5 0.0264113 -0.09 0.0616505
5 0.0727073 -0.06 0.0503012
5 0.0727073 0.06 0.0591455
5 0.0632626 -0.07 0.0550728
5 0.0632626 0.07 0.0585044
5 0.0294653 0.09 0.0348991
5 0.0294653 -0.09 0.0613231
5 0.0507211 0.08 0.0501778
5 0.0507211 -0.08 0.0582737
5 0.0929523 -0.02 0.0342778
5 0.0929523 0.02 0.0407618
5 0.0950896 -0.01 0.0325639
5 0.0950896 0.01 0.03578
5 0.0908536 -0.03 0.0358932
5 0.0908536 0.03 0.0453552
5 0.0325754 0.09 0.0367214
5 0.0325754 -0.09 0.0609158
5 0.0826091 -0.05 0.0439767
5 0.0826091 0.05 0.0552682
5 0.054221 0.08 0.0534512
5 0.054221 -0.08 0.0572075
5 0.0357425 0.09 0.0390488
5 0.0357425 -0.09 0.0604291
5 0.0669925 -0.07 0.0535448
5 0.0669925 0.07 0.0605452
5 0.0972268 0 0.0325003
5 0.0766105 -0.06 0.0483163
5 0.0766105 0.06 0.0594043
5 0.0887548 -0.04 0.038762
5 0.0887548 0.04 0.0499553
5 0.0389677 0.09 0.0417755
5 0.0389677 -0.09 0.0598567
5 0.0577851 -0.08 0.0560273
5 0.0577851 0.08 0.0564492
5 0.0972268 -0.02 0.0310028
5 0.0972268 0.02 0.0380393
5 0.0422521 0.09 0.0447887
5 0.0422521 -0.09 0.059192
5 0.0707909 -0.07 0.0519
5 0.0707909 0.07 0.06199
5 0.0950896 -0.03 0.0328159
5 0.0950896 0.03 0.043151
5 0.0994033 -0.01 0.0290792
5 0.0994033 0.01 0.0325767
5 0 0.1 0.0402076
5 0 -0.1 0.0592286
5 0.00256965 0.1 0.0401631
5 0.00256965 -0.1 0.0591952
5 0.0866939 -0.05 0.0414869
5 0.0866939 0.05 0.054293
5 0.00518642 0.1 0.0400808
5 0.00518642 -0.1 0.0591669
5 0.00785119 0.1 0.0400099
5 0.00785119 -0.1 0.0591984
5 0.0805853 -0.06 0.0462006
5 0.0805853 0.06 0.0591604
5 0.0105648 0.1 0.039941
5 0.0105648 -0.1 0.0592655
5 0.0614146 -0.08 0.0547338
5 0.0614146 0.08 0.0590649
5 0.0133283 0.1 0.0398592
5 0.0133283 -0.1 0.0593473
5 0.0455967 0.09 0.0479498
5 0.0455967 -0.09 0.058429
5 0.0929523 -0.04 0.035915
5 0.0929523 0.04 0.0481177
5 0.0161424 0.1 0.0397458
5 0.0161424 -0.1 0.0594093
5 0.10158 0 0.0290622
5 0.0190081 0.1 0.039596
5 0.0190081 -0.1 0.0594133
5 0.0746589 -0.07 0.0501374
5 0.0746589 0.07 0.0628068
5 0.0219263 0.1 0.0394316
5 0.0219263 -0.1 0.0593303
5 0.0490026 0.09 0.0511226
5 0.0490026 -0.09 0.0575635
5 0.0248981 0.1 0.0393119
5 0.0248981 -0.1 0.059148
5 0.0651106 -0.08 0.0533278
5 0.0651106 0.08 0.0612117
5 0.10158 -0.02 0.0275253
5 0.10158 0.02 0.0350504
5 0.0908536 -0.05 0.0388586
5 0.0908536 0.05 0.0528919
5 0.0846329 -0.06 0.0439508
5 0.0846329 0.06 0.05841
5 0.0279244 0.1 0.0393488
5 0.0279244 -0.1 0.0588688
5 0.0994033 -0.03 0.0295508
5 0.0994033 0.03 0.0406483
5 0.052471 0.09 0.0542292
5 0.052471 -0.09 0.0565932
5 0.103796 -0.01 0.0253845
5 0.103796 0.01 0.0292067
5 0.0310063 0.1 0.0396532
5 0.0310063 -0.1 0.0585052
5 0.0972268 -0.04 0.0329105
5 0.0972268 0.04 0.0459362
5 0.0785979 -0.07 0.0482535
5 0.0785979 0.07 0.0629877
5 0.0688745 -0.08 0.0518093
5 0.0688745 0.08 0.0628227
5 0.0341446 0.1 0.0402983
5 0.0341446 -0.1 0.0580648
5 0.056003 0.09 0.0571684
5 0.056003 -0.09 0.0555168
5 0.106012 0 0.0254121
5 0.0373405 0.1 0.0413208
5 0.0373405 -0.1 0.0575432
5 0.0887548 -0.06 0.0415624
5 0.0887548 0.06 0.0571697
5 0.0950896 -0.05 0.0360911
5 0.0950896 0.05 0.0510718
5 0.106012 -0.02 0.0238353
5 0.106012 0.02 0.0317849
5 0.040595 0.1 0.0426972
5 0.040595 -0.1 0.0569338
5 0.0595998 -0.09 0.0543339
5 0.0595998 0.09 0.0598017
5 0.103796 -0.03 0.0260852
5 0.103796 0.03 0.0377686
5 0.0727073 -0.08 0.0501769
5 0.0727073 0.08 0.0638557
5 0.0826091 -0.07 0.0462423
5 0.0826091 0.07 0.0625561
5 0.108269 -0.01 0.0214547
5 0.108269 0.01 0.0256006
5 0.10158 -0.04 0.0297371
5 0.10158 0.04 0.043404
5 0.0439092 0.1 0.0443619
5 0.0439092 -0.1 0.0562306
5 0.00128482 0.11 0.0470971
5 0.00128482 -0.11 0.056914
5 0.0632626 -0.09 0.0530447
5 0.0632626 0.09 0.0620279
5 0.00387803 0.11 0.0470826
5 0.00387803 -0.11 0.0568281
5 0.00651881 0.11 0.0471562
5 0.00651881 -0.11 0.0568073
5 0.00920802 0.11 0.0472821
5 0.00920802 -0.11 0.056823
5 0.110526 0 0.0214845
5 0.0472842 0.1 0.04624
5 0.0472842 -0.1 0.0554289
5 0.0929523 -0.06 0.039031
5 0.0929523 0.06 0.0554844
5 0.0119465 0.11 0.0473781
5 0.0119465 -0.11 0.0568638
5 0.0766105 -0.08 0.0484271
5 0.0766105 0.08 0.0642769
5 0.0147353 0.11 0.0473615
5 0.0147353 -0.11 0.0569025
5 0.0994033 -0.05 0.033183
5 0.0994033 0.05 0.0488728
5 0.0175752 0.11 0.0471211
5 0.0175752 -0.11 0.0569009
5 0.0866939 -0.07 0.0440963
5 0.0866939 0.07 0.0615221
5 0.0204672 0.11 0.0466238
5 0.0204672 -0.11 0.0568261
5 0.0507211 0.1 0.0482558
5 0.0507211 -0.1 0.0545262
5 0.0669925 -0.09 0.0516484
5 0.0669925 0.09 0.0637699
5 0.110526 -0.02 0.0199161
5 0.110526 0.02 0.0282286
5 0.108269 -0.03 0.0224151
5 0.108269 0.03 0.034562
5 0.0234122 0.11 0.0458666
5 0.0234122 -0.11 0.0566624
5 0.0264113 0.11 0.0449248
5 0.0264113 -0.11 0.0564129
5 0.112825 -0.01 0.0172575
5 0.112825 0.01 0.0216234
5 0.106012 -0.04 0.0263882
5 0.106012 0.04 0.0405292
5 0.0805853 -0.08 0.046554
5 0.0805853 0.08 0.064067
5 0.054221 0.1 0.0503374
5 0.054221 -0.1 0.053521
5 0.0294653 0.11 0.0439474
5 0.0294653 -0.11 0.0560888
5 0.0972268 -0.06 0.0363528
5 0.0972268 0.06 0.0533988
5 0.0707909 -0.09 0.0501435
5 0.0707909 0.09 0.0649862
5 0.0908536 -0.07 0.0418069
5 0.0908536 0.07 0.0599712
5 0.0325754 0.11 0.043045
5 0.0325754 -0.11 0.055693
5 0.115123 0 0.0172291
5 0.103796 -0.05 0.0301283
5 0.103796 0.05 0.046325
5 0.0577851 -0.1 0.0524129
5 0.0577851 0.1 0.0524095
5 0.0357425 0.11 0.0423784
5 0.0357425 -0.11 0.055221
5 0.0846329 -0.08 0.0445498
5 0.0846329 0.08 0.06324
5 0.0389677 0.11 0.0420807
5 0.0389677 -0.11 0.0546658
5 0.112825 -0.03 0.018535
5 0.112825 0.03 0.0311265
5 0.115123 -0.02 0.0157429
5 0.115123 0.02 0.0243523
5 0.0746589 -0.09 0.0485262
5 0.0746589 0.09 0.0656402
5 0.0614146 -0.1 0.0512019
5 0.0614146 0.1 0.0543942
5 0.110526 -0.04 0.0228579
5 0.110526 0.04 0.0373675
5 0.0422521 0.11 0.0421443
5 0.0422521 -0.11 0.0540206
5 0.117464 -0.01 0.0127514
5 0.117464 0.01 0.0172818
5 0.10158 -0.06 0.0335244
5 0.10158 0.06 0.05095
5 0.0950896 -0.07 0.0393664
5 0.0950896 0.07 0.0580019
5 0.0455967 0.11 0.0425654
5 0.0455967 -0.11 0.0532805
5 0.108269 -0.05 0.0269229
5 0.108269 0.05 0.0434598
5 0.0651106 -0.1 0.0498874
5 0.0651106 0.1 0.0562111
5 0.0887548 -0.08 0.0424052
5 0.0887548 0.08 0.0618479
5 0.0785979 -0.09 0.0467907
5 0.0785979 0.09 0.0656729
5 0.119804 -3.70074e-17 0.0126124
5 0 0.12 0.0459347
5 0 -0.12 0.0536016
5 0.00256965 0.12 0.0459541
5 0.00256965 -0.12 0.0535535
5 0.00518642 0.12 0.0460121
5 0.00518642 -0.12 0.0534843
5 0.00785119 0.12 0.0460844
5 0.00785119 -0.12 0.0534573
5 0.0490026 0.11 0.0433227
5 0.0490026 -0.11 0.0524425
5 0.0105648 0.12 0.0460995
5 0.0105648 -0.12 0.0534544
5 0.0133283 0.12 0.0459567
5 0.0133283 -0.12 0.0534568
5 0.0161424 0.12 0.045535
5 0.0161424 -0.12 0.0534352
5 0.117464 -0.03 0.0144257
5 0.117464 0.03 0.0273756
5 0.0688745 -0.1 0.0484679
5 0.0688745 0.1 0.057773
5 0.119804 -0.02 0.0112782
5 0.119804 0.02 0.0201196
5 0.0190081 0.12 0.0447218
5 0.0190081 -0.12 0.0533594
5 0.0994033 -0.07 0.0367694
5 0.0994033 0.07 0.0556476
5 0.106012 -0.06 0.0305442
5 0.106012 0.06 0.0481739
5 0.052471 0.11 0.0443491
5 0.052471 -0.11 0.0515052
5 0.115123 -0.04 0.019138
5 0.115123 0.04 0.0339419
5 0.0219263 0.12 0.0434495
5 0.0219263 -0.12 0.053211
5 0.0826091 -0.09 0.044929
5 0.0826091 0.09 0.0650512
5 0.0248981 0.12 0.0417308
5 0.0248981 -0.12 0.0529865
5 0.122188 -0.01 0.00786807
5 0.122188 0.01 0.0125459
5 0.0929523 -0.08 0.0401102
5 0.0929523 0.08 0.059956
5 0.0279244 0.12 0.0396973
5 0.0279244 -0.12 0.0526903
5 0.112825 -0.05 0.023557
5 0.112825 0.05 0.0403203
5 0.056003 0.11 0.0456035
5 0.056003 -0.11 0.0504684
5 0.0727073 -0.1 0.0469397
5 0.0727073 0.1 0.0589836
5 0.0310063 0.12 0.0375471
5 0.0310063 -0.12 0.0523252
5 0.124571 0 0.00756304
5 0.0341446 0.12 0.0354806
5 0.0341446 -0.12 0.051888
5 0.0866939 -0.09 0.042931
5 0.0866939 0.09 0.06383
5 0.0595998 -0.11 0.0493323
5 0.0595998 0.11 0.0470651
5 0.103796 -0.07 0.0340155
5 0.103796 0.07 0.0529533
5 0.0373405 0.12 0.0337005
5 0.0373405 -0.12 0.0513727
5 0.110526 -0.06 0.027412
5 0.110526 0.06 0.0451097
5 0.122188 -0.03 0.0100654
5 0.122188 0.03 0.0232729
5 0.0972268 -0.08 0.0376549
5 0.0972268 0.08 0.0576105
5 0.0766105 -0.1 0.0452972
5 0.0766105 0.1 0.0597284
5 0.124571 -0.02 0.0064716
5 0.124571 0.02 0.0154957
5 0.119804 -0.04 0.0152216
5 0.119804 0.04 0.0302404
5 0.040595 0.12 0.0323924
5 0.040595 -0.12 0.0507727
5 0.0632626 -0.11 0.0480965
5 0.0632626 0.11 0.0486826
5 0.126999 -0.01 0.00252428
5 0.126999 0.01 0.00731119
5 0.117464 -0.05 0.0200325
5 0.117464 0.05 0.0369436
5 0.0439092 0.12 0.03169
5 0.0439092 -0.12 0.0500829
5 0.0908536 -0.09 0.0407859
5 0.0908536 0.09 0.0620675
5 0.0805853 -0.1 0.043532
5 0.0805853 0.1 0.0598939
5 0.0669925 -0.11 0.0467598
5 0.0669925 0.11 0.0503647
5 0.108269 -0.07 0.0311089
5 0.108269 0.07 0.0499562
5 0.0472842 0.12 0.0316235
5 0.0472842 -0.12 0.0493001
5 0.10158 -0.08 0.0350309
5 0.10158 0.08 0.0548577
5 0.129426 0 0.00198589
5 0.115123 -0.06 0.0241342
5 0.115123 0.06 0.0418015
5 0.00128482 0.13 0.0447722
5 0.00128482 -0.13 0.0502893
5 0.00387803 0.13 0.0448645
5 0.00387803 -0.13 0.0501826
5 0.00651881 0.13 0.0449452
5 0.00651881 -0.13 0.0501192
5 0.0507211 0.12 0.0322295
5 0.0507211 -0.12 0.0484228
5 0.00920802 0.13 0.0449542
5 0.00920802 -0.13 0.0500796
5 0.126999 -0.03 0.0054261
5 0.126999 0.03 0.0188503
5 0.0119465 0.13 0.0447838
5 0.0119465 -0.13 0.0500509
5 0.0707909 -0.11 0.0453193
5 0.0707909 0.11 0.0519716
5 0.0147353 0.13 0.0443033
5 0.0147353 -0.13 0.0500099
5 0.124571 -0.04 0.0111028
5 0.124571 0.04 0.0262801
5 0.0950896 -0.09 0.0384808
5 0.0950896 0.09 0.0597825
5 0.129426 -0.02 0.00126717
5 0.129426 0.02 0.0104293
5 0.0846329 -0.1 0.0416336
5 0.0846329 0.1 0.0594243
5 0.0175752 0.13 0.0433539
5 0.0175752 -0.13 0.0499275
5 0.0204672 0.13 0.0417884
5 0.0204672 -0.13 0.0497832
5 0.054221 -0.12 0.0474506
5 0.054221 0.12 0.0335629
5 0.122188 -0.05 0.0163609
5 0.122188 0.05 0.0333676
5 0.0234122 0.13 0.039519
5 0.0234122 -0.13 0.0495725
5 0.131897 -0.01 -0.00337039
5 0.131897 0.01 0.00147537
5 0.0264113 0.13 0.0366126
5 0.0264113 -0.13 0.0492983
5 0.112825 -0.07 0.0280576
5 0.112825 0.07 0.0467008
5 0.106012 -0.08 0.0322327
5 0.106012 0.08 0.0517617
5 0.0746589 -0.11 0.0437694
5 0.0746589 0.11 0.0533366
5 0.0577851 -0.12 0.0463832
5 0.0577851 0.12 0.0354074
5 0.0294653 0.13 0.033304
5 0.0294653 -0.13 0.0489613
5 0.0887548 -0.1 0.0395888
5 0.0887548 0.1 0.0583272
5 0.119804 -0.06 0.0207278
5 0.119804 0.06 0.0382932
5 0.0325754 0.13 0.0298917
5 0.0325754 -0.13 0.0485575
5 0.0994033 -0.09 0.036002
5 0.0994033 0.09 0.0570089
5 0.134369 0 -0.00420495
5 0.0614146 -0.12 0.0452204
5 0.0614146 0.12 0.0375213
5 0.0357425 0.13 0.026607
5 0.0357425 -0.13 0.0480804
5 0.0785979 -0.11 0.0421019
5 0.0785979 0.11 0.054264
5 0.131897 -0.03 0.000485821
5 0.131897 0.03 0.0140774
5 0.129426 -0.04 0.00677488
5 0.129426 0.04 0.0220651
5 0.0389677 0.13 0.0237356
5 0.0389677 -0.13 0.0475234
5 0.134369 -0.02 -0.00440731
5 0.134369 0.02 0.00485169
5 0.110526 -0.08 0.0292591
5 0.110526 0.08 0.0483813
5 0.126999 -0.05 0.0125568
5 0.126999 0.05 0.0296276
5 0.0651106 -0.12 0.0439604
5 0.0651106 0.12 0.0397599
5 0.0929523 -0.1 0.0373823
5 0.0929523 0.1 0.0566118
5 0.0422521 0.13 0.0216086
5 0.0422521 -0.13 0.0468808
5 0.117464 -0.07 0.0248882
5 0.117464 0.07 0.0432395
5 0.136886 -0.01 -0.00989702
5 0.136886 0.01 -0.00503134
5 0.103796 -0.09 0.0333357
5 0.103796 0.09 0.0538196
5 0.0826091 -0.11 0.0403059
5 0.0826091 0.11 0.0545876
5 0.0455967 0.13 0.0204417
5 0.0455967 -0.13 0.0461494
5 0.124571 -0.06 0.0172156
5 0.124571 0.06 0.0346225
5 0.0688745 -0.12 0.0426
5 0.0688745 0.12 0.0418605
5 0.0490026 0.13 0.0201644
5 0.0490026 -0.13 0.0453278
5 0.139403 0 -0.0110703
5 0.0972268 -0.1 0.0349962
5 0.0972268 0.1 0.0542837
5 0 0.14 0.0390661
5 0 -0.14 0.0462558
5 0.00256965 0.14 0.0391065
5 0.00256965 -0.14 0.0461956
5 0.0866939 -0.11 0.0383676
5 0.0866939 0.11 0.0542281
5 0.00518642 0.14 0.0391257
5 0.00518642 -0.14 0.0460976
5 0.136886 -0.03 -0.00485091
5 0.136886 0.03 0.00888214
5 0.052471 0.13 0.021082
5 0.052471 -0.13 0.0444155
5 0.115123 -0.08 0.026116
5 0.115123 0.08 0.0447642
5 0.134369 -0.04 0.00223728
5 0.134369 0.04 0.0175586
5 0.00785119 0.14 0.0390292
5 0.00785119 -0.14 0.0460301
5 0.0727073 -0.12 0.0411337
5 0.0727073 0.12 0.0435982
5 0.0105648 0.14 0.0387991
5 0.0105648 -0.14 0.0459721
5 0.0133283 0.14 0.0383492
5 0.0133283 -0.14 0.045907
5 0.108269 -0.09 0.0304695
5 0.108269 0.09 0.050316
5 0.122188 -0.07 0.0216278
5 0.122188 0.07 0.0396203
5 0.139403 -0.02 -0.0106306
5 0.139403 0.02 -0.00130434
5 0.0161424 0.14 0.0375344
5 0.0161424 -0.14 0.0458128
5 0.131897 -0.05 0.00862849
5 0.131897 0.05 0.0257028
5 0.0190081 0.14 0.0362152
5 0.0190081 -0.14 0.0456705
5 0.056003 -0.13 0.0434128
5 0.056003 0.13 0.0232173
5 0.0219263 0.14 0.0343189
5 0.0219263 -0.14 0.045471
5 0.0248981 0.14 0.0318527
5 0.0248981 -0.14 0.0452125
5 0.141967 -0.01 -0.0170996
5 0.141967 0.01 -0.0122573
5 0.0766105 -0.12 0.0395536
5 0.0766105 0.12 0.044843
5 0.10158 -0.1 0.0324097
5 0.10158 0.1 0.0513875
5 0.129426 -0.06 0.013624
5 0.129426 0.06 0.0308001
5 0.0908536 -0.11 0.03627
5 0.0908536 0.11 0.0531825
5 0.0279244 0.14 0.0289221
5 0.0279244 -0.14 0.0448944
5 0.0595998 -0.13 0.0423192
5 0.0595998 0.13 0.0257442
5 0.0310063 0.14 0.0257424
5 0.0310063 -0.14 0.0445135
5 0.119804 -0.08 0.0228163
5 0.119804 0.08 0.040964
5 0.0341446 0.14 0.0225808
5 0.0341446 -0.14 0.0440645
5 0.112825 -0.09 0.0273991
5 0.112825 0.09 0.0465504
5 0.14453 -3.70074e-17 -0.0186376
5 0.0805853 -0.12 0.0378489
5 0.0805853 0.12 0.0454982
5 0.0632626 -0.13 0.0411333
5 0.0632626 0.13 0.0285943
5 0.0373405 0.14 0.0197209
5 0.0373405 -0.14 0.043541
5 0.126999 -0.07 0.0183152
5 0.126999 0.07 0.0358727
5 0.139403 -0.04 -0.00249636
5 0.139403 0.04 0.0127208
5 0.141967 -0.03 -0.0106787
5 0.141967 0.03 0.00318548
5 0.0950896 -0.11 0.0339917
5 0.0950896 0.11 0.0514139
5 0.136886 -0.05 0.00468317
5 0.136886 0.05 0.0215694
5 0.106012 -0.1 0.0295995
5 0.106012 0.1 0.0480133
5 0.040595 0.14 0.0174398
5 0.040595 -0.14 0.0429377
5 0.14453 -0.02 -0.0174325
5 0.14453 0.02 -0.00806772
5 0.0669925 -0.13 0.0398517
5 0.0669925 0.13 0.0313989
5 0.0439092 0.14 0.0159791
5 0.0439092 -0.14 0.0422508
5 0.0846329 -0.12 0.0360062
5 0.0846329 0.12 0.0454953
5 0.134369 -0.06 0.0100027
5 0.134369 0.06 0.0268195
5 0.14714 -0.01 -0.0249848
5 0.14714 0.01 -0.0202132
5 0.0472842 0.14 0.0154476
5 0.0472842 -0.14 0.0414785
5 0.117464 -0.09 0.0241175
5 0.117464 0.09 0.0425641
5 0.0707909 -0.13 0.0384689
5 0.0707909 0.13 0.0337075
5 0.124571 -0.08 0.0193814
5 0.124571 0.08 0.0370319
5 0.0994033 -0.11 0.0315095
5 0.0994033 0.11 0.0489284
5 0.0507211 -0.14 0.0406202
5 0.0507211 0.14 0.015902
5 0.110526 -0.1 0.0265444
5 0.110526 0.1 0.044264
5 0.0887548 -0.12 0.0340088
5 0.0887548 0.12 0.0447984
5 0.131897 -0.07 0.0149936
5 0.131897 0.07 0.0319954
5 0.14975 0 -0.0268376
5 0.0746589 -0.13 0.0369769
5 0.0746589 0.13 0.0353779
5 0.14453 -0.04 -0.00738841
5 0.14453 0.04 0.00752982
5 0.00128482 0.15 0.03336
5 0.00128482 -0.15 0.0422222
5 0.00387803 0.15 0.0334292
5 0.00387803 -0.15 0.0420883
5 0.054221 -0.14 0.0396754
5 0.054221 0.14 0.0173515
5 0.00651881 0.15 0.0332639
5 0.00651881 -0.15 0.0420004
5 0.14714 -0.03 -0.0169709
5 0.14714 0.03 -0.00299004
5 0.00920802 0.15 0.0329534
5 0.00920802 -0.15 0.041921
5 0.0119465 0.15 0.032505
5 0.0119465 -0.15 0.0418367
5 0.141967 -0.05 0.000858281
5 0.141967 0.05 0.0172435
5 0.0147353 0.15 0.0318045
5 0.0147353 -0.15 0.0417302
5 0.0175752 0.15 0.0306756
5 0.0175752 -0.15 0.0415833
5 0.14975 -0.02 -0.0247492
5 0.14975 0.02 -0.0153764
5 0.103796 -0.11 0.0287905
5 0.103796 0.11 0.0457917
5 0.0204672 0.15 0.0290427
5 0.0204672 -0.15 0.0413877
5 0.0577851 -0.14 0.0386435
5 0.0577851 0.14 0.0194171
5 0.122188 -0.09 0.0206302
5 0.122188 0.09 0.0384301
5 0.139403 -0.06 0.0064256
5 0.139403 0.06 0.0226929
5 0.0929523 -0.12 0.0318362
5 0.0929523 0.12 0.0433709
5 0.0234122 0.15 0.0269249
5 0.0234122 -0.15 0.0411405
5 0.0785979 -0.13 0.0353655
5 0.0785979 0.13 0.036394
5 0.129426 -0.08 0.0158419
5 0.129426 0.08 0.0330023
5 0.0264113 0.15 0.0243539
5 0.0264113 -0.15 0.0408388
5 0.115123 -0.1 0.0232268
5 0.115123 0.1 0.0402333
5 0.152408 -0.01 -0.0334442
5 0.152408 0.01 -0.0287136
5 0.0294653 0.15 0.0214174
5 0.0294653 -0.15 0.0404791
5 0.0614146 -0.14 0.0375228
5 0.0614146 0.14 0.0216551
5 0.0325754 0.15 0.0183558
5 0.0325754 -0.15 0.0400562
5 0.136886 -0.07 0.0117036
5 0.136886 0.07 0.0280082
5 0.0826091 -0.13 0.0336216
5 0.0826091 0.13 0.0367475
5 0.0357425 0.15 0.0154679
5 0.0357425 -0.15 0.0395638
5 0.108269 -0.11 0.0258009
5 0.108269 0.11 0.0421241
5 0.0651106 -0.14 0.0363101
5 0.0651106 0.14 0.0237877
5 0.0972268 -0.12 0.0294639
5 0.0972268 0.12 0.0411807
5 0.0389677 0.15 0.0130724
5 0.0389677 -0.15 0.0389964
5 0.14975 -0.04 -0.0123599
5 0.14975 0.04 0.00200063
5 0.155066 0 -0.0354206
5 0.152408 -0.03 -0.0236013
5 0.152408 0.03 -0.00959327
5 0.14714 -0.05 -0.00276519
5 0.14714 0.05 0.0126771
5 0.126999 -0.09 0.0169506
5 0.126999 0.09 0.0342026
5 0.0422521 0.15 0.0113422
5 0.0422521 -0.15 0.03835
5 0.0688745 -0.14 0.0350002
5 0.0688745 0.14 0.0255343
5 0.119804 -0.1 0.0196353
5 0.119804 0.1 0.0360176
5 0.0866939 -0.13 0.031729
5 0.0866939 0.13 0.0364178
5 0.155066 -0.02 -0.0323253
5 0.155066 0.02 -0.0230726
5 0.134369 -0.08 0.0122347
5 0.134369 0.08 0.0289017
5 0.14453 -0.06 0.00296404
5 0.14453 0.06 0.0184244
5 0.0455967 0.15 0.0105238
5 0.0455967 -0.15 0.0376228
5 0.10158 -0.12 0.0268614
5 0.10158 0.12 0.0382519
5 0.112825 -0.11 0.0225068
5 0.112825 0.11 0.0380637
5 0.0727073 -0.14 0.0335863
5 0.0727073 0.14 0.0267586
5 0.0490026 0.15 0.0106605
5 0.0490026 -0.15 0.036814
5 0.157773 -0.01 -0.0421079
5 0.157773 0.01 -0.0374223
5 0.141967 -0.07 0.00845532
5 0.141967 0.07 0.0239481
5 0.0908536 -0.13 0.0296679
5 0.0908536 0.13 0.0353647
5 0.052471 -0.15 0.0359232
5 0.052471 0.15 0.0117013
5 0.0766105 -0.14 0.0320599
5 0.0766105 0.14 0.0274647
5 0.131897 -0.09 0.0131061
5 0.131897 0.09 0.0299363
5 0.124571 -0.1 0.0157685
5 0.124571 0.1 0.0317073
5 0 0.16 0.0287468
5 0 -0.16 0.0376213
5 0.00256965 0.16 0.0287674
5 0.00256965 -0.16 0.0375552
5 0.00518642 0.16 0.0286924
5 0.00518642 -0.16 0.0374405
5 0.056003 -0.15 0.0349498