# U  POINT_DATA 90431
# x  y  z  U_x  U_y  U_z
4 0 0 0 0 0
4 0.00256965 0 -0.0342694 0.00608791 -0.0441289
4 0.00518642 0 -0.0530528 0.0148683 -0.076314
4 0.00785119 0 -0.070602 0.0259392 -0.105942
4 0.00128135 -0.00996393 -0.020469 0.000613904 -0.0046024
4 0.00128135 0.00996393 -0.0291198 0.00420272 -0.0512784
4 0.0105648 0 -0.0854666 0.0385776 -0.130349
4 0.00386754 -0.00996393 -0.0310139 0.00582008 -0.0227341
4 0.00386754 0.00996393 -0.0576172 0.0139264 -0.0991293
4 0.00650117 -0.00996393 -0.037564 0.013331 -0.0430787
4 0.00650117 0.00996393 -0.0875928 0.0268587 -0.14223
4 0.0133283 0 -0.0948569 0.0522026 -0.14673
4 0.00918311 -0.00996393 -0.0433397 0.0238248 -0.0623335
4 0.00918311 0.00996393 -0.115715 0.0404492 -0.178623
4 0.0119142 -0.00996393 -0.0483565 0.036994 -0.0781955
4 0.0119142 0.00996393 -0.136304 0.05388 -0.205098
4 0.0161424 0 -0.096943 0.066401 -0.152967
4 0.0146954 -0.00996393 -0.0508563 0.0522059 -0.0876034
4 0.0146954 0.00996393 -0.145658 0.0665764 -0.219021
4 0.0190081 0 -0.0917332 0.0810365 -0.148816
4 0 -0.02 0 0 0
4 0 0.02 0 0 0
4 0.0175277 -0.00996393 -0.0494804 0.069056 -0.088334
4 0.0175277 0.00996393 -0.143347 0.0785262 -0.21998
4 0.00256965 -0.02 -0.036799 0.0027168 -0.0183098
4 0.00256965 0.02 -0.0857334 0.00742779 -0.111689
4 0.00518642 -0.02 -0.0466238 0.00837602 -0.0333197
4 0.00518642 0.02 -0.127499 0.0154559 -0.158742
4 0.00785119 -0.02 -0.0503572 0.0168472 -0.0453277
4 0.00785119 0.02 -0.164615 0.024299 -0.195782
4 0.0219263 0 -0.0806503 0.0961471 -0.1356
4 0.0105648 -0.02 -0.0523995 0.0280922 -0.053511
4 0.0105648 0.02 -0.191656 0.0319605 -0.222613
4 0.0204118 -0.00996393 -0.0442739 0.0871409 -0.0796356
4 0.0204118 0.00996393 -0.131222 0.0900221 -0.21047
4 0.0133283 -0.02 -0.0537515 0.0418642 -0.0568138
4 0.0133283 0.02 -0.205117 0.0383516 -0.238258
4 0.0248981 0 -0.0657405 0.111863 -0.115123
4 0.0233489 -0.00996393 -0.0364934 0.106421 -0.0632953
4 0.0233489 0.00996393 -0.111865 0.101392 -0.192236
4 0.0161424 -0.02 -0.0542542 0.0577368 -0.0541383
4 0.0161424 0.02 -0.205739 0.0438182 -0.242847
4 0.0190081 -0.02 -0.0539001 0.0752596 -0.0449563
4 0.0190081 0.02 -0.196131 0.0487636 -0.238735
4 0.0279244 0 -0.0490836 0.128239 -0.0889317
4 0.0263398 -0.00996393 -0.0278851 0.126363 -0.0414172
4 0.0263398 0.00996393 -0.0878872 0.113438 -0.166828
4 0.0219263 -0.02 -0.0532555 0.0940085 -0.0296933
4 0.0219263 0.02 -0.178642 0.053689 -0.228087
4 0.00128135 -0.0298918 -0.0392511 0.000553803 -0.0152709
4 0.00128135 0.0298918 -0.0994977 0.00390375 -0.120422
4 0.00386754 -0.0298918 -0.0584164 0.00385103 -0.0297028
4 0.00386754 0.0298918 -0.156807 0.00768011 -0.177223
4 0.00650117 -0.0298918 -0.062353 0.010477 -0.0371032
4 0.00650117 0.0298918 -0.208097 0.0133203 -0.217917
4 0.0310063 0 -0.032595 0.145136 -0.0580022
4 0.0293856 -0.00996393 -0.0205546 0.146582 -0.015915
4 0.0293856 0.00996393 -0.0611317 0.126531 -0.134879
4 0.00918311 -0.0298918 -0.0615356 0.0197633 -0.0388662
4 0.00918311 0.0298918 -0.246958 0.0164107 -0.245708
4 0.0248981 -0.02 -0.053295 0.113514 -0.00949974
4 0.0248981 0.02 -0.155115 0.0591812 -0.21164
4 0.0119142 -0.0298918 -0.0600446 0.031841 -0.035612
4 0.0119142 0.0298918 -0.267002 0.0167275 -0.261963
4 0.0146954 -0.0298918 -0.0596356 0.0465091 -0.0277066
4 0.0146954 0.0298918 -0.270113 0.0155586 -0.267515
4 0.0324873 -0.00996393 -0.0169868 0.166496 0.0112856
4 0.0324873 0.00996393 -0.0328095 0.14073 -0.0958813
4 0.0341446 0 -0.0180398 0.162164 -0.0233511
4 0.0279244 -0.02 -0.0549726 0.133303 0.0143476
4 0.0279244 0.02 -0.127249 0.0657977 -0.18977
4 0.0175277 -0.0298918 -0.0610454 0.0632934 -0.0155895
4 0.0175277 0.0298918 -0.261704 0.0136161 -0.26512
4 0.0204118 -0.0298918 -0.0648156 0.0816696 0.000391269
4 0.0204118 0.0298918 -0.245495 0.0115391 -0.259375
4 0.0310063 -0.02 -0.0590169 0.152966 0.0405736
4 0.0310063 0.02 -0.0965907 0.0738967 -0.161538
4 0.0356458 -0.00996393 -0.0187336 0.18558 0.0383476
4 0.0356458 0.00996393 -0.0047345 0.155533 -0.0507005
4 0.0373405 0 -0.00696635 0.178722 0.0134821
4 0.0233489 -0.0298918 -0.0713617 0.100926 0.0199426
4 0.0233489 0.0298918 -0.222775 0.0100865 -0.250089
4 0.0341446 -0.02 -0.065774 0.172143 0.0679556
4 0.0341446 0.02 -0.0647345 0.0835824 -0.125219
4 0.0263398 -0.0298918 -0.0811619 0.120491 0.0426174
4 0.0263398 0.0298918 -0.194467 0.00974565 -0.237066
4 0 0.04 0 0 0
4 0 -0.04 0 0 0
4 0.00256965 0.04 -0.147807 0.00083368 -0.144984
4 0.00256965 -0.04 -0.0548261 0.00238687 -0.00977856
4 0.0388623 -0.00996393 -0.0258884 0.203309 0.0644638
4 0.0388623 0.00996393 0.0203322 0.170087 -0.00203708
4 0.00518642 0.04 -0.208786 0.0002732 -0.186729
4 0.00518642 -0.04 -0.0710644 0.00786744 -0.0115797
4 0.040595 0 -0.000440463 0.194177 0.0506069
4 0.00785119 -0.04 -0.0772961 0.0164189 -0.00778486
4 0.00785119 0.04 -0.257915 -0.00209737 -0.214612
4 0.0105648 -0.04 -0.0810586 0.0276759 0.000864708
4 0.0105648 0.04 -0.288783 -0.00676084 -0.233413
4 0.0293856 -0.0298918 -0.0936836 0.139954 0.0677318
4 0.0293856 0.0298918 -0.161982 0.0111149 -0.219895
4 0.0133283 -0.04 -0.0854436 0.0413747 0.0136481
4 0.0133283 0.04 -0.302067 -0.0131522 -0.246162
4 0.0373405 -0.02 -0.0750361 0.19049 0.0955336
4 0.0373405 0.02 -0.033662 0.0945179 -0.0808927
4 0.0161424 -0.04 -0.0913237 0.0571244 0.0299133
4 0.0161424 0.04 -0.302923 -0.0204026 -0.253295
4 0.0421378 -0.00996393 -0.0384358 0.219245 0.0895849
4 0.0421378 0.00996393 0.0410112 0.183702 0.0461003
4 0.0439092 0 6.2219e-05 0.207956 0.0857763
4 0.0324873 -0.0298918 -0.107792 0.15906 0.0946678
4 0.0324873 0.0298918 -0.126997 0.0146175 -0.195182
4 0.0190081 0.04 -0.295171 -0.0279042 -0.255107
4 0.0190081 -0.04 -0.0987299 0.0744678 0.0491317
4 0.040595 -0.02 -0.0862947 0.207689 0.122741
4 0.040595 0.02 -0.0048942 0.10594 -0.0309419
4 0.0219263 0.04 -0.279906 -0.0350546 -0.252041
4 0.0219263 -0.04 -0.107462 0.092871 0.0708901
4 0.0356458 -0.0298918 -0.12204 0.177731 0.122887
4 0.0356458 0.0298918 -0.0911335 0.020714 -0.159099
4 0.0454733 0.00996393 0.0511077 0.195341 0.0888689
4 0.0454733 -0.00996393 -0.0547044 0.23326 0.113681
4 0.0248981 0.04 -0.257257 -0.0413045 -0.244582
4 0.0248981 -0.04 -0.117063 0.111766 0.0947474
4 0.0472842 0 -0.00552597 0.219766 0.117039
4 0.0439092 -0.02 -0.0989088 0.223613 0.149241
4 0.0439092 0.02 0.0186797 0.118117 0.0210746
4 0.0279244 0.04 -0.228162 -0.04614 -0.232733
4 0.0279244 -0.04 -0.126993 0.130664 0.120145
4 0.0388623 -0.0298918 -0.135466 0.195719 0.151712
4 0.0388623 0.0298918 -0.0561033 0.028976 -0.112225
4 0.00128135 0.0498197 -0.131422 -0.00232472 -0.119547
4 0.00128135 -0.0498197 -0.0470741 0.000374256 0.000559515
4 0.0488701 -0.00996393 -0.0727701 0.245722 0.136934
4 0.0488701 0.00996393 0.0530096 0.204624 0.123227
4 0.00386754 0.0498197 -0.203338 -0.00593869 -0.162468
4 0.00386754 -0.0498197 -0.0761174 0.00456524 0.00542647
4 0.00650117 -0.0498197 -0.0896543 0.0120857 0.0151118
4 0.00650117 0.0498197 -0.266685 -0.0140341 -0.188938
4 0.0310063 0.04 -0.194361 -0.0490334 -0.215103
4 0.0310063 -0.04 -0.136652 0.149185 0.146612
4 0.00918311 -0.0498197 -0.0982491 0.0225698 0.0295411
4 0.00918311 0.0498197 -0.309322 -0.0242355 -0.205281
4 0.0507211 0 -0.0151261 0.229795 0.143708
4 0.0119142 0.0498197 -0.3306 -0.0362255 -0.219809
4 0.0119142 -0.0498197 -0.1071 0.0355134 0.0478714
4 0.0472842 -0.02 -0.112098 0.238364 0.174998
4 0.0472842 0.02 0.0344526 0.129701 0.0702101
4 0.0421378 -0.0298918 -0.146909 0.212961 0.180413
4 0.0421378 0.0298918 -0.0222252 0.0383814 -0.0568364
4 0.0146954 -0.0498197 -0.117629 0.0504564 0.0690795
4 0.0146954 0.0498197 -0.338555 -0.0491069 -0.2341
4 0.0341446 0.04 -0.157607 -0.0494576 -0.189617
4 0.0341446 -0.04 -0.145585 0.167032 0.173738
4 0.0175277 -0.0498197 -0.129442 0.066981 0.0924527
4 0.0175277 0.0498197 -0.33864 -0.0622958 -0.244801
4 0.0523291 -0.00996393 -0.0909241 0.25719 0.15955
4 0.0523291 0.00996393 0.0491824 0.211737 0.149164
4 0.0204118 0.0498197 -0.331639 -0.0752937 -0.249312
4 0.0204118 -0.0498197 -0.141789 0.0846657 0.117443
4 0.054221 0 -0.0278986 0.238535 0.166546
4 0.0454733 -0.0298918 -0.156636 0.229577 0.208482
4 0.0454733 0.0298918 0.00679344 0.0526021 0.00390518
4 0.0507211 -0.02 -0.125151 0.252157 0.199771
4 0.0507211 0.02 0.0428892 0.139496 0.111789
4 0.0373405 0.04 -0.119633 -0.0470693 -0.155037
4 0.0373405 -0.04 -0.154158 0.18397 0.200574
4 0.0233489 0.0498197 -0.316241 -0.0875825 -0.247734
4 0.0233489 -0.0498197 -0.15367 0.103017 0.143615
4 0.0263398 0.0498197 -0.292104 -0.0987173 -0.242131
4 0.0263398 -0.0498197 -0.163412 0.121523 0.170379
4 0.0558515 -0.00996393 -0.107727 0.268171 0.181439
4 0.0558515 0.00996393 0.0372674 0.2174 0.169782
4 0.040595 0.04 -0.0821879 -0.0419921 -0.112172
4 0.040595 -0.04 -0.162754 0.199844 0.2262
4 0.0488701 0.0298918 0.0282411 0.0641163 0.0613193
4 0.0488701 -0.0298918 -0.164887 0.245603 0.236155
4 0.0577851 0 -0.0437389 0.246546 0.186411
4 0.054221 -0.02 -0.13769 0.265185 0.222883
4 0.054221 0.02 0.0442423 0.148246 0.144452
4 0.0293856 0.0498197 -0.260918 -0.108157 -0.23094
4 0.0293856 -0.0498197 -0.170626 0.13971 0.197218
4 0.0439092 0.04 -0.0477602 -0.0334346 -0.0630057
4 0.0439092 -0.04 -0.171096 0.214543 0.250468
4 0.0324873 0.0498197 -0.224782 -0.115337 -0.214076
4 0.0324873 -0.0498197 -0.174999 0.157181 0.224082
4 0 0.06 0 0 0
4 0 -0.06 0 0 0
4 0.00256965 0.06 -0.168222 -0.00694569 -0.104604
4 0.00256965 -0.06 -0.0716294 0.00272471 0.0140609
4 0.00518642 0.06 -0.238818 -0.0156724 -0.129461
4 0.00518642 -0.06 -0.09942 0.00850028 0.0308711
4 0.0523291 -0.0298918 -0.172247 0.260939 0.261858
4 0.0523291 0.0298918 0.0421225 0.0758982 0.10863
4 0.0594386 -0.00996393 -0.122389 0.279028 0.202413
4 0.0594386 0.00996393 0.0176356 0.222242 0.185757
4 0.00785119 0.06 -0.295164 -0.0277918 -0.145175
4 0.00785119 -0.06 -0.11699 0.0171096 0.0515257
4 0.0105648 0.06 -0.330269 -0.0412132 -0.157336
4 0.0105648 -0.06 -0.130372 0.0281544 0.0748441
4 0.0577851 -0.02 -0.149668 0.277545 0.244062
4 0.0577851 0.02 0.0381958 0.15592 0.169069
4 0.0356458 0.0498197 -0.185215 -0.119574 -0.190587
4 0.0356458 -0.0498197 -0.177625 0.173477 0.250513
4 0.0614146 0 -0.0612934 0.254297 0.203574
4 0.0133283 0.06 -0.348177 -0.0556192 -0.168769
4 0.0133283 -0.06 -0.141648 0.0410812 0.0999728
4 0.0472842 0.04 -0.0192538 -0.0225337 -0.0118165
4 0.0472842 -0.04 -0.179816 0.227911 0.273109
4 0.0161424 0.06 -0.356476 -0.0705634 -0.178781
4 0.0161424 -0.06 -0.151453 0.0553891 0.126301
4 0.0190081 0.06 -0.359072 -0.0856194 -0.185719
4 0.0190081 -0.06 -0.159582 0.0705663 0.153344
4 0.0388623 0.0498197 -0.144196 -0.120186 -0.159708
4 0.0388623 -0.0498197 -0.181285 0.188433 0.274358
4 0.0558515 -0.0298918 -0.179774 0.275389 0.284316
4 0.0558515 0.0298918 0.0493921 0.0868501 0.144321
4 0.0630915 -0.00996393 -0.134468 0.289861 0.222508
4 0.0630915 0.00996393 -0.00586688 0.227008 0.197561
4 0.0219263 0.06 -0.356481 -0.100283 -0.188837
4 0.0219263 -0.06 -0.165441 0.0860519 0.180541
4 0.0614146 -0.02 -0.161197 0.289239 0.263307
4 0.0614146 0.02 0.0262375 0.162773 0.186367
4 0.0507211 0.04 0.00199441 -0.0108936 0.0356262
4 0.0507211 -0.04 -0.190275 0.23974 0.293323
4 0.0248981 0.06 -0.347978 -0.114076 -0.188577
4 0.0248981 -0.06 -0.168917 0.101264 0.207182
4 0.0651106 0 -0.0778464 0.262254 0.218817
4 0.0421378 0.0498197 -0.104662 -0.116861 -0.122569
4 0.0421378 -0.0498197 -0.186856 0.201909 0.295515
4 0.0279244 0.06 -0.332925 -0.1265 -0.184948
4 0.0279244 -0.06 -0.170568 0.115704 0.232779
4 0.0594386 -0.0298918 -0.18845 0.288655 0.303986
4 0.0594386 0.0298918 0.0496913 0.0966453 0.169712
4 0.054221 0.04 0.0162159 0.00156666 0.0756614
4 0.054221 -0.04 -0.203234 0.249783 0.310428
4 0.0454733 0.0498197 -0.0695646 -0.109481 -0.0804842
4 0.0454733 -0.0498197 -0.193259 0.213539 0.314732
4 0.0310063 0.06 -0.311485 -0.137 -0.177326
4 0.0310063 -0.06 -0.17187 0.129008 0.256803
4 0.0668113 -0.00996393 -0.144158 0.300848 0.241794
4 0.0668113 0.00996393 -0.0265475 0.232498 0.207747
4 0.0651106 -0.02 -0.172484 0.300149 0.280384
4 0.0651106 0.02 0.0117981 0.169297 0.197301
4 0.0688745 0 -0.0918718 0.270773 0.23267
4 0.0341446 0.06 -0.284723 -0.145001 -0.165238
4 0.0341446 -0.06 -0.17485 0.140882 0.278443
4 0.00128135 0.0697475 -0.130546 -0.0055052 -0.0588318
4 0.00128135 -0.0697475 -0.0612297 0.000748169 0.012899
4 0.0488701 0.0498197 -0.0410842 -0.0987821 -0.0372894
4 0.0488701 -0.0498197 -0.203582 0.22292 0.330444
4 0.0630915 -0.0298918 -0.198953 0.300578 0.320554
4 0.0630915 0.0298918 0.0449916 0.105224 0.185168
4 0.00386754 0.0697475 -0.207568 -0.0138712 -0.0778785
4 0.00386754 -0.0697475 -0.102432 0.00510541 0.0370104
4 0.00650117 0.0697475 -0.277683 -0.0285756 -0.0889672
4 0.00650117 -0.0697475 -0.129998 0.0119845 0.0653978
4 0.0577851 0.04 0.0238966 0.0141017 0.107251
4 0.0577851 -0.04 -0.21883 0.257809 0.324522
4 0.00918311 0.0697475 -0.326714 -0.0439057 -0.0979461
4 0.00918311 -0.0697475 -0.150639 0.0213755 0.0953778
4 0.0373405 0.06 -0.254192 -0.149917 -0.148098
4 0.0373405 -0.06 -0.18145 0.151117 0.297149
4 0.0119142 0.0697475 -0.353759 -0.0599571 -0.106748
4 0.0119142 -0.0697475 -0.166044 0.0325971 0.125799
4 0.0146954 0.0697475 -0.368659 -0.0765488 -0.114815
4 0.0146954 -0.0697475 -0.176264 0.0450973 0.15625
4 0.0705994 -0.00996393 -0.152356 0.31199 0.260116
4 0.0705994 0.00996393 -0.0439816 0.23915 0.215881
4 0.0688745 -0.02 -0.183954 0.310103 0.29498
4 0.0688745 0.02 -0.00241898 0.176059 0.20371
4 0.0175277 0.0697475 -0.378503 -0.0935423 -0.121747
4 0.0175277 -0.0697475 -0.182818 0.0583142 0.186431
4 0.0523291 0.0498197 -0.0197051 -0.0858652 0.00337174
4 0.0523291 -0.0498197 -0.219326 0.2297 0.342336
4 0.040595 0.06 -0.221552 -0.151361 -0.125924
4 0.040595 -0.06 -0.193506 0.159494 0.313206
4 0.0204118 0.0697475 -0.385614 -0.110464 -0.127344
4 0.0204118 -0.0697475 -0.184465 0.0716024 0.21596
4 0.0727073 0 -0.103697 0.279945 0.244648
4 0.0668113 -0.0298918 -0.211652 0.310574 0.333278
4 0.0668113 0.0298918 0.0363535 0.11301 0.191281
4 0.0614146 0.04 0.0260335 0.026244 0.130341
4 0.0614146 -0.04 -0.236654 0.263702 0.335463
4 0.0233489 0.0697475 -0.390273 -0.126811 -0.131379
4 0.0233489 -0.0697475 -0.181834 0.0842696 0.243953
4 0.0439092 0.06 -0.188716 -0.148961 -0.0994823
4 0.0439092 -0.06 -0.211941 0.165677 0.326565
4 0.0263398 0.0697475 -0.390979 -0.142153 -0.133638
4 0.0263398 -0.0697475 -0.176544 0.0956758 0.269488
4 0.0558515 0.0498197 -0.00497844 -0.0713231 0.0388725
4 0.0558515 -0.0498197 -0.240346 0.233549 0.350835
4 0.074457 -0.00996393 -0.1603 0.323043 0.276041
4 0.074457 0.00996393 -0.0576858 0.247149 0.221893
4 0.0727073 -0.02 -0.19613 0.318936 0.306904
4 0.0727073 0.02 -0.015239 0.183482 0.207672
4 0.0293856 0.0697475 -0.385385 -0.155912 -0.133802
4 0.0293856 -0.0697475 -0.171294 0.105457 0.292645
4 0.0472842 0.06 -0.157795 -0.142689 -0.0703396
4 0.0472842 -0.06 -0.236142 0.169323 0.335999
4 0.0651106 0.04 0.0239706 0.0378406 0.144549
4 0.0651106 -0.04 -0.256123 0.267391 0.342758
4 0.0766105 0 -0.11409 0.289656 0.25494
4 0.0705994 -0.0298918 -0.226756 0.318379 0.341717
4 0.0705994 0.0298918 0.0263095 0.120572 0.192686
4 0.0324873 0.0697475 -0.37269 -0.167544 -0.1314
4 0.0324873 -0.0697475 -0.17004 0.113384 0.311767
4 0.0594386 0.0498197 0.00394123 -0.0561486 0.0678679
4 0.0594386 -0.0498197 -0.265269 0.234385 0.356745
4 0.0356458 0.0697475 -0.354254 -0.176536 -0.126129
4 0.0356458 -0.0697475 -0.176125 0.119369 0.325828
4 0.0507211 0.06 -0.130552 -0.133118 -0.0407024
4 0.0507211 -0.06 -0.264813 0.170256 0.34115
4 0.0783853 -0.00996393 -0.16902 0.333607 0.28926
4 0.0783853 0.00996393 -0.0688861 0.256519 0.228379
4 0.0766105 -0.02 -0.209313 0.326409 0.31599
4 0.0766105 0.02 -0.0264979 0.191798 0.211042
4 0.0688745 -0.04 -0.276673 0.268873 0.346461
4 0.0688745 0.04 0.0189847 0.0490036 0.151718
4 0.0388623 0.0697475 -0.331346 -0.182427 -0.117712
4 0.0388623 -0.0697475 -0.190076 0.123287 0.33629
4 0 0.08 0 0 0
4 0 -0.08 0 0 0
4 0.00256965 0.08 -0.166561 -0.0101061 -0.0243102
4 0.00256965 -0.08 -0.0899577 0.00302866 0.0390344
4 0.00518642 0.08 -0.239378 -0.0222214 -0.0301269
4 0.00518642 -0.08 -0.126108 0.00812663 0.0707311
4 0.074457 -0.0298918 -0.244007 0.323841 0.347116
4 0.074457 0.0298918 0.0161498 0.128397 0.19328
4 0.00785119 0.08 -0.297741 -0.0375229 -0.0370976
4 0.00785119 -0.08 -0.150669 0.0151653 0.10446
4 0.0630915 0.0498197 0.00841652 -0.0408466 0.0898164
4 0.0630915 -0.0498197 -0.292185 0.232277 0.358572
4 0.0805853 0 -0.124107 0.299628 0.264231
4 0.0105648 0.08 -0.335422 -0.0529365 -0.0471057
4 0.0105648 -0.08 -0.166429 0.0236798 0.138532
4 0.054221 0.06 -0.107981 -0.120891 -0.0126737
4 0.054221 -0.06 -0.295664 0.168477 0.342954
4 0.0133283 0.08 -0.35723 -0.0682484 -0.058808
4 0.0133283 -0.08 -0.174223 0.0330791 0.172068
4 0.0421378 0.0697475 -0.304384 -0.185098 -0.106105
4 0.0421378 -0.0697475 -0.215012 0.124715 0.345067
4 0.0161424 0.08 -0.371049 -0.0833582 -0.0704283
4 0.0161424 -0.08 -0.175074 0.0427413 0.204424
4 0.0190081 0.08 -0.381416 -0.098157 -0.0811582
4 0.0190081 -0.08 -0.17067 0.0519601 0.23476
4 0.0219263 0.08 -0.390315 -0.112386 -0.090625
4 0.0219263 -0.08 -0.164008 0.0601727 0.261539
4 0.0727073 -0.04 -0.297371 0.268289 0.347118
4 0.0727073 0.04 0.0124065 0.0599553 0.15551
4 0.0823856 -0.00996393 -0.179033 0.343416 0.299696
4 0.0823856 0.00996393 -0.0790488 0.266804 0.235945
4 0.0805853 -0.02 -0.223377 0.332352 0.322161
4 0.0805853 0.02 -0.0368765 0.201017 0.214967
4 0.0454733 0.0697475 -0.274674 -0.183627 -0.0919253
4 0.0454733 -0.0697475 -0.251571 0.123232 0.34941
4 0.0577851 0.06 -0.0903442 -0.106741 0.0121226
4 0.0577851 -0.06 -0.326011 0.164246 0.341976
4 0.0668113 -0.0498197 -0.319648 0.227608 0.356866
4 0.0668113 0.0498197 0.0093464 -0.0259095 0.103039
4 0.0248981 0.08 -0.398155 -0.125697 -0.0985273
4 0.0248981 -0.08 -0.1592 0.0669776 0.284011
4 0.0783853 -0.0298918 -0.262611 0.326811 0.349281
4 0.0783853 0.0298918 0.00602749 0.136733 0.194076
4 0.0846329 0 -0.134527 0.309595 0.27253
4 0.0279244 0.08 -0.403882 -0.137713 -0.104586
4 0.0279244 -0.08 -0.160437 0.0721031 0.302672
4 0.0488701 0.0697475 -0.244202 -0.178226 -0.0755971
4 0.0488701 -0.0697475 -0.294645 0.118664 0.348001
4 0.0310063 0.08 -0.406283 -0.148081 -0.10851
4 0.0310063 -0.08 -0.171601 0.0753606 0.316915
4 0.0614146 0.06 -0.0773607 -0.0913696 0.0326686
4 0.0614146 -0.06 -0.353962 0.15804 0.338806
4 0.0705994 -0.0498197 -0.346301 0.220807 0.352471
4 0.0705994 0.0498197 0.00734112 -0.0113976 0.111401
4 0.0766105 -0.04 -0.31678 0.265824 0.345197
4 0.0766105 0.04 0.00491082 0.0708875 0.158015
4 0.0846329 -0.02 -0.238227 0.336656 0.325456
4 0.0846329 0.02 -0.0470032 0.211076 0.219667
4 0.0341446 0.08 -0.404939 -0.156463 -0.110088
4 0.0341446 -0.08 -0.194839 0.0766034 0.325785
4 0.0864594 -0.00996393 -0.190663 0.35232 0.307268
4 0.0864594 0.00996393 -0.0889841 0.277831 0.244164
4 0.0523291 0.0697475 -0.215381 -0.169102 -0.0579639
4 0.0523291 -0.0697475 -0.339643 0.11122 0.342636
4 0.0823856 -0.0298918 -0.281322 0.327417 0.34848
4 0.0823856 0.0298918 -0.00424673 0.145839 0.195619
4 0.0373405 0.08 -0.400009 -0.162548 -0.109217
4 0.0373405 -0.08 -0.229099 0.0756489 0.329689
4 0.0651106 0.06 -0.068601 -0.0753913 0.0480409
4 0.0651106 -0.06 -0.378334 0.150399 0.334382
4 0.0887548 0 -0.145646 0.319323 0.279464
4 0.0558515 0.0697475 -0.189796 -0.156937 -0.0402565
4 0.0558515 -0.0697475 -0.380749 0.101371 0.335144
4 0.074457 -0.0498197 -0.36984 0.212413 0.34592
4 0.074457 0.0498197 0.00328458 0.00259169 0.116903
4 0.00128135 0.0896754 -0.125551 -0.00563456 0.0161063
4 0.00128135 -0.0896754 -0.0756143 0.00123407 0.0348353
4 0.040595 0.08 -0.391997 -0.166144 -0.105878
4 0.040595 -0.08 -0.271596 0.0721553 0.328989
4 0.00386754 0.0896754 -0.20232 -0.0153311 0.02248
4 0.00386754 -0.0896754 -0.120657 0.00499054 0.0708717
4 0.00650117 0.0896754 -0.269826 -0.0309651 0.0227112
4 0.00650117 -0.0896754 -0.151613 0.010356 0.10898
4 0.0805853 -0.04 -0.333535 0.261701 0.340882
4 0.0805853 0.04 -0.00328973 0.0820027 0.160036
4 0.00918311 -0.0896754 -0.170806 0.0168503 0.147349
4 0.00918311 0.0896754 -0.316721 -0.0464551 0.0144451
4 0.0119142 0.0896754 -0.344433 -0.0612322 0.00029799
4 0.0119142 -0.0896754 -0.178624 0.0237893 0.184843
4 0.0146954 0.0896754 -0.361857 -0.0750815 -0.0155673
4 0.0146954 -0.0896754 -0.176264 0.0307288 0.22062
4 0.0887548 0.02 -0.0571681 0.221918 0.224734
4 0.0887548 -0.02 -0.253081 0.339131 0.325857
4 0.0906078 -0.00996393 -0.203579 0.359914 0.311877
4 0.0906078 0.00996393 -0.09904 0.289379 0.252085
4 0.0439092 0.08 -0.381635 -0.166901 -0.100291
4 0.0439092 -0.08 -0.317928 0.0658633 0.323359
4 0.0688745 0.06 -0.0635279 -0.0593002 0.0587435
4 0.0688745 -0.06 -0.397974 0.141875 0.32931
4 0.0175277 0.0896754 -0.374767 -0.0881203 -0.0311812
4 0.0175277 -0.0896754 -0.165048 0.0367452 0.253647
4 0.0864594 -0.0298918 -0.300156 0.325509 0.344739
4 0.0864594 0.0298918 -0.0146969 0.155852 0.198067
4 0.0594386 0.0697475 -0.16821 -0.142395 -0.0237286
4 0.0594386 -0.0697475 -0.414668 0.0900697 0.324716
4 0.0204118 0.0896754 -0.386168 -0.100399 -0.0459123
4 0.0204118 -0.0896754 -0.150206 0.0411507 0.282259
4 0.0233489 0.0896754 -0.398406 -0.111805 -0.0593451
4 0.0233489 -0.0896754 -0.139207 0.0437278 0.303189
4 0.0783853 -0.0498197 -0.387897 0.20291 0.337475
4 0.0783853 0.0498197 -0.0024502 0.0161996 0.12093
4 0.0472842 0.08 -0.36981 -0.164528 -0.0928824
4 0.0472842 -0.08 -0.361854 0.056852 0.314125
4 0.0929523 0 -0.157441 0.328481 0.284484
4 0.0263398 0.0896754 -0.412005 -0.121991 -0.071145
4 0.0263398 -0.0896754 -0.138748 0.0444176 0.318613
4 0.0846329 0.04 -0.0120917 0.0934666 0.161799
4 0.0846329 -0.04 -0.346698 0.256113 0.334412
4 0.0630915 0.0697475 -0.150952 -0.126129 -0.00925157
4 0.0630915 -0.0697475 -0.440457 0.0782653 0.315138
4 0.0727073 0.06 -0.0614814 -0.0433515 0.0664081
4 0.0727073 -0.06 -0.411981 0.132972 0.323873
4 0.0293856 0.0896754 -0.426025 -0.130802 -0.0810792
4 0.0293856 -0.0896754 -0.154541 0.0431946 0.329167
4 0.0507211 0.08 -0.357473 -0.159061 -0.0841341
4 0.0507211 -0.08 -0.398827 0.0456676 0.304089
4 0.0929523 0.02 -0.0675314 0.233364 0.229367
4 0.0929523 -0.02 -0.266902 0.339623 0.323281
4 0.0948324 -0.00996393 -0.217376 0.365863 0.313254
4 0.0948324 0.00996393 -0.109468 0.301072 0.258782
4 0.0324873 0.0896754 -0.439653 -0.13809 -0.0890232
4 0.0324873 -0.0896754 -0.189669 0.0399362 0.333274
4 0.0906078 -0.0298918 -0.315991 0.321025 0.338154
4 0.0906078 0.0298918 -0.0252189 0.166823 0.200899
4 0.0823856 -0.0498197 -0.399431 0.192714 0.327527
4 0.0823856 0.0498197 -0.0093098 0.0296167 0.123766
4 0.0356458 0.0896754 -0.451461 -0.14371 -0.0950454
4 0.0356458 -0.0896754 -0.242247 0.0345152 0.33148
4 0.0668113 0.0697475 -0.138251 -0.108935 0.00269043
4 0.0668113 -0.0697475 -0.457693 0.0666847 0.307233
4 0.054221 0.08 -0.345506 -0.150719 -0.0746378
4 0.054221 -0.08 -0.427534 0.0333102 0.295597
4 0.0972268 0 -0.169802 0.3366 0.286968
4 0.0766105 0.06 -0.0620346 -0.0275914 0.0720177
4 0.0766105 -0.06 -0.420155 0.124037 0.318096
4 0.0887548 0.04 -0.0214175 0.105376 0.163197
4 0.0887548 -0.04 -0.355624 0.249137 0.325684
4 0.0388623 0.0896754 -0.460902 -0.147541 -0.0992473
4 0.0388623 -0.0896754 -0.306039 0.0265507 0.324483
4 0.0577851 0.08 -0.334588 -0.13987 -0.065157
4 0.0577851 -0.08 -0.448885 0.0208194 0.289506
4 0.0421378 0.0896754 -0.468825 -0.149506 -0.101755
4 0.0421378 -0.0896754 -0.372547 0.0155975 0.309734
4 0.0705994 0.0697475 -0.129287 -0.0914231 0.0123997
4 0.0705994 -0.0697475 -0.465032 0.0559771 0.30119
4 0.0972268 0.02 -0.0783087 0.245082 0.232814
4 0.0972268 -0.02 -0.279198 0.338135 0.317441
4 0.0948324 -0.0298918 -0.328562 0.314137 0.328662
4 0.0948324 0.0298918 -0.0358575 0.178598 0.203155
4 0.0991344 -0.00996393 -0.231467 0.369527 0.310733
4 0.0991344 0.00996393 -0.120535 0.312388 0.263611
4 0.0864594 0.0498197 -0.0171564 0.0429609 0.125322
4 0.0864594 -0.0498197 -0.40301 0.182174 0.316335
4 0 0.1 0 0 0
4 0 -0.1 0 0 0
4 0.00256965 0.1 -0.142867 -0.00834138 0.0572086
4 0.00256965 -0.1 -0.10127 0.00219585 0.0601472
4 0.00518642 0.1 -0.207103 -0.0188842 0.068893
4 0.00518642 -0.1 -0.137091 0.00534253 0.0994715
4 0.00785119 0.1 -0.256057 -0.0322163 0.0663433
4 0.00785119 -0.1 -0.157467 0.00932658 0.139599
4 0.0805853 0.06 -0.0648777 -0.011922 0.076058
4 0.0805853 -0.06 -0.422456 0.115219 0.311605
4 0.0454733 0.0896754 -0.475566 -0.149338 -0.102744
4 0.0454733 -0.0896754 -0.429116 0.00187336 0.289326
4 0.0105648 0.1 -0.284402 -0.0456188 0.0528034
4 0.0105648 -0.1 -0.16386 0.0134477 0.178997
4 0.0614146 0.08 -0.325247 -0.126949 -0.0564193
4 0.0614146 -0.08 -0.464244 0.00893803 0.286115
4 0.0133283 0.1 -0.298008 -0.0586742 0.0344875
4 0.0133283 -0.1 -0.15896 0.0171557 0.21622
4 0.0929523 0.04 -0.0311566 0.117746 0.163811
4 0.0929523 -0.04 -0.359576 0.240833 0.314414
4 0.0161424 0.1 -0.306989 -0.07111 0.0154833
4 0.0161424 -0.1 -0.147251 0.0198332 0.249411
4 0.10158 0 -0.182715 0.343285 0.28644
4 0.0190081 0.1 -0.317792 -0.0826973 -0.00309529
4 0.0190081 -0.1 -0.134921 0.0209017 0.276367
4 0.074457 0.0697475 -0.123784 -0.0738282 0.0201339
4 0.074457 -0.0697475 -0.46384 0.0465167 0.2966
4 0.0488701 0.0896754 -0.481074 -0.146854 -0.102709
4 0.0488701 -0.0896754 -0.468121 -0.0139701 0.2704
4 0.0219263 0.1 -0.331822 -0.0930424 -0.0211798
4 0.0219263 -0.1 -0.129501 0.0201011 0.295597
4 0.0248981 0.1 -0.348264 -0.101803 -0.0384699
4 0.0248981 -0.1 -0.138221 0.0174413 0.306835
4 0.0651106 0.08 -0.317956 -0.112464 -0.0489004
4 0.0651106 -0.08 -0.473902 -0.00197344 0.285411
4 0.0906078 0.0498197 -0.0258256 0.0563481 0.125511
4 0.0906078 -0.0498197 -0.400564 0.171453 0.303126
4 0.10158 0.02 -0.0898357 0.256657 0.234247
4 0.10158 -0.02 -0.289171 0.334738 0.308354
4 0.0991344 0.0298918 -0.0468465 0.190913 0.2042
4 0.0991344 -0.0298918 -0.337166 0.305658 0.316147
4 0.0846329 0.06 -0.0697147 0.00375693 0.0785377
4 0.0846329 -0.06 -0.418066 0.106598 0.303523
4 0.0279244 0.1 -0.366223 -0.108928 -0.0542999
4 0.0279244 -0.1 -0.16636 0.0131002 0.309656
4 0.0523291 0.0896754 -0.484841 -0.141981 -0.101791
4 0.0523291 -0.0896754 -0.488873 -0.0304614 0.256422
4 0.103515 -0.00996393 -0.245626 0.370952 0.305304
4 0.103515 0.00996393 -0.132697 0.322868 0.265009
4 0.0310063 0.1 -0.385227 -0.114513 -0.0679988
4 0.0310063 -0.1 -0.215085 0.00708049 0.304403
4 0.0783853 0.0697475 -0.121579 -0.0561296 0.02611
4 0.0783853 -0.0697475 -0.456485 0.0383063 0.293164
4 0.0972268 0.04 -0.041266 0.130488 0.163193
4 0.0972268 -0.04 -0.357912 0.231427 0.300381
4 0.0688745 0.08 -0.312786 -0.0968957 -0.0427441
4 0.0688745 -0.08 -0.477189 -0.0117944 0.286314
4 0.0558515 0.0896754 -0.486937 -0.134778 -0.100126
4 0.0558515 -0.0896754 -0.497252 -0.0457873 0.249648
4 0.0341446 0.1 -0.404791 -0.118555 -0.0793297
4 0.0341446 -0.1 -0.279258 -0.000988606 0.292774
4 0.106012 0 -0.195773 0.348363 0.2827
4 0.0373405 0.1 -0.424331 -0.121032 -0.0884636
4 0.0373405 -0.1 -0.347504 -0.0116003 0.276749
4 0.0948324 0.0498197 -0.0350333 0.0698481 0.124091
4 0.0948324 -0.0498197 -0.390567 0.160521 0.287526
4 0.0887548 0.06 -0.0763232 0.0195191 0.0793318
4 0.0887548 -0.06 -0.406735 0.0982453 0.29331
4 0.0594386 0.0896754 -0.487697 -0.12532 -0.098116
4 0.0594386 -0.0896754 -0.49988 -0.0590549 0.250152
4 0.103515 -0.0298918 -0.340156 0.295633 0.300495
4 0.103515 0.0298918 -0.0585517 0.203352 0.203523
4 0.106012 -0.02 -0.296111 0.329484 0.296178
4 0.106012 0.02 -0.102405 0.267664 0.233201
4 0.040595 0.1 -0.443433 -0.121927 -0.0956462
4 0.040595 -0.1 -0.407304 -0.0250546 0.258166
4 0.0823856 0.0697475 -0.122503 -0.0382728 0.0303175
4 0.0823856 -0.0697475 -0.443774 0.0310449 0.289021
4 0.0727073 0.08 -0.309584 -0.0806108 -0.037904
4 0.0727073 -0.08 -0.473902 -0.0204916 0.287675
4 0.107977 -0.00996393 -0.258108 0.370227 0.296532
4 0.107977 0.00996393 -0.145876 0.332159 0.263221
4 0.10158 0.04 -0.0518494 0.143431 0.16108
4 0.10158 -0.04 -0.350207 0.221129 0.28334
4 0.0439092 0.1 -0.461678 -0.121132 -0.101261
4 0.0439092 -0.1 -0.452173 -0.0408286 0.239691
4 0.00128135 0.109603 -0.0912421 -0.00312934 0.0788686
4 0.00128135 -0.109603 -0.0830795 0.000633784 0.0468257
4 0.0630915 0.0896754 -0.487827 -0.113953 -0.0961046
4 0.0630915 -0.0896754 -0.499561 -0.07009 0.256068
4 0.00386754 0.109603 -0.15247 -0.0091981 0.109992
4 0.00386754 -0.109603 -0.125961 0.00193267 0.0877301
4 0.00650117 0.109603 -0.204333 -0.0199235 0.118778
4 0.00650117 -0.109603 -0.150594 0.00411495 0.129926
4 0.00918311 0.109603 -0.234472 -0.0313404 0.107719
4 0.00918311 -0.109603 -0.157374 0.00602789 0.171771
4 0.0119142 0.109603 -0.243706 -0.043198 0.0869612
4 0.0119142 -0.109603 -0.149023 0.00718989 0.211713
4 0.110526 0 -0.208332 0.351653 0.275837
4 0.0146954 0.109603 -0.244165 -0.0548493 0.0643987
4 0.0146954 -0.109603 -0.132043 0.00701527 0.247489
4 0.0472842 0.1 -0.478419 -0.118487 -0.10594
4 0.0472842 -0.1 -0.481536 -0.057726 0.225848
4 0.0929523 0.06 -0.0845212 0.0354386 0.0782791
4 0.0929523 -0.06 -0.389019 0.0901484 0.280667
4 0.0766105 0.08 -0.308421 -0.0638069 -0.0342968
4 0.0766105 -0.08 -0.46523 -0.0281827 0.288703
4 0.0991344 0.0498197 -0.0445791 0.0834552 0.120977
4 0.0991344 -0.0498197 -0.37298 0.149326 0.26919
4 0.0175277 0.109603 -0.249443 -0.0659725 0.042334
4 0.0175277 -0.109603 -0.115349 0.0049952 0.27579
4 0.0864594 0.0697475 -0.126203 -0.020198 0.0325484
4 0.0864594 -0.0697475 -0.424162 0.0245912 0.281938
4 0.0204118 -0.109603 -0.108333 0.000935799 0.293788
4 0.0204118 0.109603 -0.263097 -0.0758315 0.0203221
4 0.0668113 0.0896754 -0.487971 -0.100905 -0.094286
4 0.0668113 -0.0896754 -0.495948 -0.0792995 0.264672
4 0.107977 -0.0298918 -0.338326 0.284073 0.281912
4 0.107977 0.0298918 -0.0714195 0.215449 0.201118
4 0.0233489 0.109603 -0.281947 -0.0836782 -0.00193912
4 0.0233489 -0.109603 -0.119165 -0.00509657 0.30326
4 0.0507211 0.1 -0.492941 -0.113896 -0.109833
4 0.0507211 -0.1 -0.496809 -0.0745658 0.219635
4 0.110526 -0.02 -0.299564 0.322457 0.280822
4 0.110526 0.02 -0.116089 0.277726 0.229849
4 0.0263398 0.109603 -0.303055 -0.0893528 -0.0236704
4 0.0263398 -0.109603 -0.154414 -0.0128316 0.30236
4 0.11252 -0.00996393 -0.268583 0.367519 0.284673
4 0.11252 0.00996393 -0.15971 0.339618 0.258544