# U  POINT_DATA 90431
# x  y  z  U_x  U_y  U_z
5 0 0 0 0 0
5 0.00256965 0 -0.0169213 -0.00494606 0.0507385
5 0.00518642 0 -0.00619769 -0.0115577 0.0759906
5 0.00785119 0 0.00977557 -0.0178244 0.0951811
5 0.00128482 0.01 -0.01752 -0.00210743 0.0432877
5 0.00128482 -0.01 -0.0228651 -0.00160696 0.02746
5 0.0105648 0 0.0277297 -0.021971 0.116967
5 0.00387803 0.01 -0.0119748 -0.00861036 0.0775982
5 0.00387803 -0.01 -0.0153242 -0.00746044 0.0546126
5 0.00651881 0.01 -6.68783e-05 -0.0160841 0.0954796
5 0.00651881 -0.01 0.00257746 -0.0140769 0.0762749
5 0.0133283 0 0.0478726 -0.0233983 0.146484
5 0.00920802 0.01 0.0134798 -0.0221306 0.108025
5 0.00920802 -0.01 0.0231146 -0.0190067 0.100947
5 0.0119465 0.01 0.0291501 -0.0256043 0.124677
5 0.0119465 -0.01 0.0451773 -0.0211427 0.134221
5 0.0161424 0 0.0709522 -0.0218739 0.184629
5 0.0147353 0.01 0.0477745 -0.0263405 0.150035
5 0.0147353 -0.01 0.0693921 -0.0205058 0.17701
5 0.0190081 0 0.0977344 -0.0173925 0.229269
5 0 0.02 0 0 0
5 0 -0.02 0 0 0
5 0.00256965 0.02 -0.0130358 -0.00405156 0.0694282
5 0.00256965 -0.02 -0.0178922 -0.00343929 0.0375995
5 0.0175752 0.01 0.0697527 -0.0239503 0.184809
5 0.0175752 -0.01 0.0968938 -0.0166985 0.226669
5 0.00518642 0.02 -0.00697772 -0.00875759 0.0959659
5 0.00518642 -0.02 -0.00342824 -0.00814515 0.0633544
5 0.00785119 0.02 0.00225592 -0.0129401 0.108931
5 0.00785119 -0.02 0.0181836 -0.0123066 0.0914537
5 0.0219263 0 0.128726 -0.0103212 0.276628
5 0.0105648 0.02 0.0134432 -0.0155753 0.119396
5 0.0105648 -0.02 0.0420876 -0.0144828 0.126898
5 0.0204672 0.01 0.0953746 -0.0184089 0.227063
5 0.0204672 -0.01 0.128922 -0.0105113 0.278545
5 0.0133283 0.02 0.0274873 -0.0163171 0.13454
5 0.0133283 -0.02 0.0680444 -0.0142394 0.170842
5 0.0248981 0 0.163631 -0.0011183 0.322567
5 0.0234122 0.01 0.124832 -0.0101461 0.273252
5 0.0234122 -0.01 0.165781 -0.00221675 0.327663
5 0.0161424 0.02 0.0450255 -0.0149105 0.157699
5 0.0161424 -0.02 0.097364 -0.0115069 0.220853
5 0.0190081 0.02 0.0662635 -0.0111435 0.18939
5 0.0190081 -0.02 0.131471 -0.00650443 0.272474
5 0.0279244 0 0.200996 0.00954394 0.363623
5 0.0264113 0.01 0.157753 0.000347261 0.319161
5 0.0264113 -0.01 0.206165 0.00754441 0.370202
5 0.0219263 0.02 0.0912695 -0.00503947 0.228107
5 0.0219263 -0.02 0.170723 0.000303002 0.32097
5 0.00128482 0.03 -0.0122018 -0.00140818 0.0590546
5 0.00128482 -0.03 -0.0217397 -0.000803036 0.0214756
5 0.00387803 0.03 -0.0104459 -0.00408095 0.097778
5 0.00387803 -0.03 -0.0116383 -0.00388741 0.0468539
5 0.00651881 0.03 -0.00542193 -0.00625569 0.11301
5 0.00651881 -0.03 0.0106752 -0.00715661 0.0756802
5 0.0310063 0 0.238394 0.0208967 0.397715
5 0.0294653 0.01 0.192886 0.0122643 0.360984
5 0.0294653 -0.01 0.247187 0.0180221 0.404153
5 0.00920802 0.03 0.00103431 -0.00729068 0.11921
5 0.00920802 -0.03 0.0363708 -0.00898655 0.112917
5 0.0248981 0.02 0.119907 0.00317904 0.270944
5 0.0248981 -0.02 0.213682 0.00842204 0.362714
5 0.0119465 0.03 0.0101107 -0.00727604 0.125676
5 0.0119465 -0.03 0.0636916 -0.00879547 0.159513
5 0.0147353 0.03 0.0229168 -0.00604764 0.137774
5 0.0147353 -0.03 0.0939211 -0.00651356 0.212632
5 0.0325754 0.01 0.228008 0.0247437 0.396286
5 0.0325754 -0.01 0.285503 0.0285592 0.429444
5 0.0341446 0 0.273166 0.0323252 0.424308
5 0.0279244 0.02 0.151566 0.013078 0.314305
5 0.0279244 -0.02 0.257344 0.0172409 0.39591
5 0.0175752 0.03 0.0396615 -0.00330318 0.158181
5 0.0175752 -0.03 0.129255 -0.00230894 0.267109
5 0.0204672 0.03 0.0602694 0.00108914 0.187514
5 0.0204672 -0.03 0.170822 0.00350213 0.317583
5 0.0310063 0.02 0.184924 0.0240405 0.354853
5 0.0310063 -0.02 0.29821 0.0262294 0.420567
5 0.0357425 0.01 0.260683 0.0371495 0.424177
5 0.0357425 -0.01 0.318475 0.0388509 0.44733
5 0.0373405 0 0.303243 0.0434666 0.444034
5 0.0234122 0.03 0.0846071 0.00730938 0.224609
5 0.0234122 -0.03 0.217376 0.0104394 0.360099
5 0.0341446 0.02 0.218062 0.0354198 0.390143
5 0.0341446 -0.02 0.333535 0.0350821 0.437947
5 0.0264113 0.03 0.112443 0.0152074 0.266765
5 0.0264113 -0.03 0.265414 0.0179229 0.392902
5 0 0.04 0 0 0
5 0 -0.04 0 0 0
5 0.00256965 0.04 -0.0105191 -2.79107e-05 0.0637446
5 0.00256965 -0.04 -0.0118017 -0.00166842 0.0384484
5 0.0389677 0.01 0.288944 0.0490659 0.445049
5 0.0389677 -0.01 0.344876 0.0488025 0.459586
5 0.00518642 0.04 -0.00855472 0.00106202 0.0831022
5 0.00518642 -0.04 0.00633325 -0.00376984 0.0687175
5 0.040595 0 0.327639 0.0541661 0.458141
5 0.00785119 0.04 -0.00334588 0.00289311 0.091007
5 0.00785119 -0.04 0.0320797 -0.00523462 0.10531
5 0.0105648 0.04 0.00482579 0.00506582 0.0979132
5 0.0105648 -0.04 0.0610037 -0.0052579 0.150134
5 0.0294653 0.03 0.143189 0.0244952 0.31032
5 0.0294653 -0.03 0.310619 0.0254763 0.416389
5 0.0133283 0.04 0.0166053 0.00736992 0.10936
5 0.0133283 -0.04 0.0934681 -0.00360855 0.20103
5 0.0373405 0.02 0.248933 0.046685 0.418877
5 0.0373405 -0.02 0.362094 0.0437261 0.449823
5 0.0161424 0.04 0.0321847 0.00989717 0.127968
5 0.0161424 -0.04 0.131282 -0.000347614 0.253338
5 0.0422521 0.01 0.311781 0.0603187 0.460023
5 0.0422521 -0.01 0.364959 0.0584796 0.467907
5 0.0439092 0 0.346489 0.064449 0.467996
5 0.0325754 0.03 0.175621 0.0346613 0.351831
5 0.0325754 -0.03 0.349537 0.0328618 0.432286
5 0.0190081 0.04 0.051291 0.0128207 0.154581
5 0.0190081 -0.04 0.175332 0.00426679 0.30198
5 0.040595 0.02 0.275878 0.0574911 0.440924
5 0.040595 -0.02 0.384221 0.0522313 0.457904
5 0.0219263 0.04 0.073494 0.01633 0.188784
5 0.0219263 -0.04 0.224242 0.00982707 0.343163
5 0.0357425 0.03 0.207941 0.0451273 0.388286
5 0.0357425 -0.03 0.38063 0.0400584 0.442731
5 0.0455967 0.01 0.32922 0.0709555 0.470406
5 0.0455967 -0.01 0.38 0.0680449 0.473651
5 0.0248981 0.04 0.0984181 0.0205985 0.229041
5 0.0248981 -0.04 0.274522 0.0158543 0.37515
5 0.0472842 0 0.360722 0.0744605 0.474815
5 0.0439092 0.02 0.297984 0.0677112 0.456958
5 0.0439092 -0.02 0.401256 0.060734 0.463557
5 0.0279244 0.04 0.125763 0.025713 0.272789
5 0.0279244 -0.04 0.321901 0.0219402 0.398189
5 0.0389677 0.03 0.238168 0.0553997 0.418001
5 0.0389677 -0.03 0.404402 0.0471944 0.449646
5 0.0490026 0.01 0.342054 0.0811562 0.477384
5 0.0490026 -0.01 0.391618 0.0776881 0.477819
5 0.00128482 0.05 -0.0088443 0.000730684 0.039972
5 0.00128482 -0.05 -0.0142339 -0.000414152 0.0272597
5 0.00387803 0.05 -0.0105845 0.0046469 0.0581781
5 0.00387803 -0.05 0.000407132 -0.00156942 0.0582089
5 0.00651881 0.05 -0.00776592 0.00993808 0.063444
5 0.00651881 -0.05 0.0258927 -0.00246624 0.0941322
5 0.0310063 0.04 0.155031 0.0316596 0.316896
5 0.0310063 -0.04 0.362957 0.0278655 0.413834
5 0.0507211 0 0.37158 0.0843861 0.479557
5 0.00920802 0.05 -0.00122894 0.0151811 0.0683649
5 0.00920802 -0.05 0.0553845 -0.00232923 0.138516
5 0.0472842 0.02 0.315154 0.0774007 0.468005
5 0.0472842 -0.02 0.414801 0.0693631 0.467764
5 0.0119465 0.05 0.00938875 0.0196493 0.078404
5 0.0119465 -0.05 0.088573 -0.000920227 0.189599
5 0.0422521 0.03 0.264624 0.0651827 0.440628
5 0.0422521 -0.03 0.422652 0.0544506 0.454476
5 0.0147353 0.05 0.0240073 0.0231545 0.0955889
5 0.0147353 -0.05 0.127693 0.0017955 0.242386
5 0.0341446 0.04 0.185251 0.0383249 0.358136
5 0.0341446 -0.04 0.396208 0.0336145 0.424109
5 0.0175752 0.05 0.0421564 0.0257855 0.120332
5 0.0175752 -0.05 0.174266 0.00563728 0.291234
5 0.052471 0.01 0.35145 0.091163 0.481937
5 0.052471 -0.01 0.401201 0.0875397 0.48109
5 0.0204672 0.05 0.0630807 0.0277118 0.152304
5 0.0204672 -0.05 0.226994 0.0102376 0.332005
5 0.054221 0 0.380204 0.0943904 0.482935
5 0.0507211 0.02 0.327928 0.0867325 0.475133
5 0.0507211 -0.02 0.426158 0.0781817 0.471168
5 0.0455967 0.03 0.286315 0.0743903 0.456776
5 0.0455967 -0.03 0.437417 0.0619631 0.458195
5 0.0373405 0.04 0.214964 0.0455275 0.393723
5 0.0373405 -0.04 0.422186 0.0393074 0.430893
5 0.0234122 0.05 0.0860233 0.0292105 0.190715
5 0.0234122 -0.05 0.281787 0.0151303 0.362972
5 0.0264113 0.05 0.110604 0.0306676 0.234085
5 0.0264113 -0.05 0.333522 0.0199258 0.384634
5 0.056003 0.01 0.358549 0.101221 0.484831
5 0.056003 -0.01 0.409619 0.0976407 0.483885
5 0.040595 0.04 0.24248 0.0530117 0.422074
5 0.040595 -0.04 0.442632 0.0450972 0.435631
5 0.0490026 0.03 0.303032 0.0831033 0.467455
5 0.0490026 -0.03 0.450171 0.0697587 0.461391
5 0.0577851 0 0.387394 0.104585 0.485453
5 0.054221 0.02 0.337181 0.0959366 0.479308
5 0.054221 -0.02 0.436117 0.0871658 0.474153
5 0.0294653 0.05 0.136821 0.0324829 0.279997
5 0.0294653 -0.05 0.378057 0.0244371 0.398837
5 0.0439092 0.04 0.266325 0.0605845 0.442965
5 0.0439092 -0.04 0.459434 0.0510776 0.439294
5 0.0325754 0.05 0.1645 0.0350003 0.325448
5 0.0325754 -0.05 0.413622 0.0286879 0.407827
5 0 0.06 0 0 0
5 0 -0.06 0 0 0
5 0.00256965 0.06 -0.00633026 0.00286414 0.024498
5 0.00256965 -0.06 -0.00130089 -0.00100433 0.0476023
5 0.00518642 0.06 -0.000985094 0.00672957 0.0329636
5 0.00518642 -0.06 0.0210291 -0.00195359 0.0843499
5 0.0595998 0.01 0.364207 0.111527 0.486654
5 0.0595998 -0.01 0.417203 0.107953 0.486444
5 0.052471 0.03 0.315179 0.0915101 0.473759
5 0.052471 -0.03 0.461643 0.0777427 0.464372
5 0.00785119 0.06 0.00888896 0.0104804 0.0420331
5 0.00785119 -0.06 0.0509954 -0.00229608 0.126746
5 0.0105648 0.06 0.0221452 0.0132959 0.055991
5 0.0105648 -0.06 0.0863585 -0.00157202 0.174525
5 0.0577851 0.02 0.343869 0.105249 0.481345
5 0.0577851 -0.02 0.444966 0.0962265 0.47692
5 0.0614146 0 0.39355 0.115011 0.487441
5 0.0357425 0.05 0.192949 0.0385121 0.36699
5 0.0357425 -0.05 0.441048 0.0328513 0.413593
5 0.0133283 0.06 0.0384613 0.0148922 0.07632
5 0.0133283 -0.06 0.128232 0.000284358 0.223826
5 0.0472842 0.04 0.285611 0.0681977 0.457027
5 0.0472842 -0.04 0.473924 0.0572357 0.442466
5 0.0161424 0.06 0.0573815 0.0152594 0.103324
5 0.0161424 -0.06 0.177385 0.00312871 0.269753
5 0.0190081 0.06 0.0781381 0.0145087 0.136751
5 0.0190081 -0.06 0.232228 0.00661898 0.308483
5 0.0389677 0.05 0.220805 0.0430726 0.401623
5 0.0389677 -0.05 0.462669 0.0371269 0.417603
5 0.056003 0.03 0.323547 0.0998548 0.476705
5 0.056003 -0.03 0.472006 0.0857425 0.467266
5 0.0219263 0.06 0.0999336 0.0128708 0.175896
5 0.0219263 -0.06 0.288774 0.0103392 0.338245
5 0.0632626 0.01 0.368906 0.122195 0.487822
5 0.0632626 -0.01 0.423885 0.118374 0.488842
5 0.0614146 0.02 0.348767 0.114873 0.481908
5 0.0614146 -0.02 0.452628 0.105241 0.479542
5 0.0507211 0.04 0.300247 0.0759073 0.465292
5 0.0507211 -0.04 0.486758 0.0634599 0.445454
5 0.0248981 0.06 0.122366 0.0108082 0.219356
5 0.0248981 -0.06 0.342105 0.0139432 0.359271
5 0.0651106 0 0.398751 0.125648 0.489061
5 0.0422521 0.05 0.24633 0.0483936 0.428048
5 0.0422521 -0.05 0.480811 0.0416184 0.420799
5 0.0279244 0.06 0.145249 0.00893444 0.264963
5 0.0279244 -0.06 0.38827 0.0172561 0.373125
5 0.0595998 0.03 0.329175 0.108397 0.47719
5 0.0595998 -0.03 0.481039 0.0935726 0.470087
5 0.054221 0.04 0.310486 0.0838455 0.468971
5 0.054221 -0.04 0.498111 0.0695881 0.448387
5 0.0310063 0.06 0.168826 0.00787637 0.309857
5 0.0310063 -0.06 0.425625 0.020292 0.381876
5 0.0455967 0.05 0.268034 0.0543734 0.446413
5 0.0455967 -0.05 0.496859 0.0462798 0.423707
5 0.0669925 0.01 0.37281 0.133264 0.488508
5 0.0669925 -0.01 0.429404 0.128764 0.491072
5 0.0651106 0.02 0.352323 0.124953 0.481466
5 0.0651106 -0.02 0.45886 0.114076 0.482003
5 0.0688745 0 0.402891 0.13643 0.490312
5 0.0341446 0.06 0.193149 0.0081734 0.350912
5 0.0341446 -0.06 0.455003 0.0231935 0.387455
5 0.0490026 0.05 0.285068 0.0609258 0.457465
5 0.0490026 -0.05 0.511254 0.0509429 0.426573
5 0.00128482 0.07 -0.00641327 0.00137176 -0.000702135
5 0.00128482 -0.07 -0.00562302 -0.0005337 0.0334852
5 0.0632626 0.03 0.332782 0.117376 0.475966
5 0.0632626 -0.03 0.488387 0.101068 0.472795
5 0.00387803 0.07 0.000521437 0.00470775 0.000545287
5 0.00387803 -0.07 0.0142488 -0.00150021 0.0714608
5 0.0577851 0.04 0.316768 0.0921821 0.469191
5 0.0577851 -0.04 0.507875 0.0754679 0.451294
5 0.00651881 0.07 0.0138899 0.00762619 0.00968819
5 0.00651881 -0.07 0.0435722 -0.00227862 0.113604
5 0.00920802 0.07 0.0306627 0.00917693 0.0266372
5 0.00920802 -0.07 0.0791375 -0.00211019 0.160738
5 0.0373405 0.06 0.217313 0.0101253 0.385468
5 0.0373405 -0.06 0.478581 0.0261197 0.391332
5 0.0119465 0.07 0.0497607 0.00917654 0.0505609
5 0.0119465 -0.07 0.122346 -0.00092821 0.209254
5 0.0707909 -0.01 0.433469 0.13898 0.493031
5 0.0707909 0.01 0.375884 0.144717 0.488638
5 0.0147353 0.07 0.0706916 0.00758851 0.0807303
5 0.0147353 -0.07 0.174326 0.0011908 0.254075
5 0.0688745 -0.02 0.463424 0.122609 0.484262
5 0.0688745 0.02 0.354781 0.135571 0.480274
5 0.0175752 0.07 0.0926746 0.00450893 0.11665
5 0.0175752 -0.07 0.233263 0.00389185 0.291327
5 0.040595 0.06 0.239959 0.0137451 0.411891
5 0.040595 -0.06 0.498429 0.0291371 0.394459
5 0.052471 0.05 0.297712 0.0680921 0.462491
5 0.052471 -0.05 0.523966 0.0553969 0.429481
5 0.0727073 0 0.405817 0.147273 0.491145
5 0.0204672 0.07 0.114645 2.84988e-05 0.157724
5 0.0204672 -0.07 0.294401 0.00670984 0.319373
5 0.0614146 0.04 0.320083 0.101103 0.466879
5 0.0614146 -0.04 0.515826 0.0809901 0.454151
5 0.0669925 0.03 0.334795 0.126979 0.473568
5 0.0669925 -0.03 0.493767 0.108101 0.475301
5 0.0234122 0.07 0.13599 -0.00546803 0.20285
5 0.0234122 -0.07 0.351926 0.00927978 0.338635
5 0.0439092 0.06 0.259633 0.0188862 0.429852
5 0.0439092 -0.06 0.51579 0.032187 0.397375
5 0.0264113 0.07 0.156851 -0.0111779 0.249784
5 0.0264113 -0.07 0.401197 0.0114376 0.350846
5 0.056003 0.05 0.30551 0.0759273 0.46293
5 0.056003 -0.05 0.534831 0.059472 0.43243
5 0.0746589 -0.01 0.435889 0.148948 0.494615
5 0.0746589 0.01 0.378028 0.156451 0.488297
5 0.0727073 -0.02 0.466179 0.13076 0.486291
5 0.0727073 0.02 0.356223 0.146739 0.478504
5 0.0294653 0.07 0.176727 -0.0162352 0.295997
5 0.0294653 -0.07 0.440313 0.0132247 0.358185
5 0.0472842 0.06 0.275307 0.0253779 0.439958
5 0.0472842 -0.06 0.531112 0.035127 0.400345
5 0.0651106 -0.04 0.521802 0.0860955 0.456912
5 0.0651106 0.04 0.321393 0.110772 0.462761
5 0.0766105 0 0.407411 0.158088 0.491562
5 0.0707909 -0.03 0.497058 0.114593 0.477643
5 0.0707909 0.03 0.335635 0.137325 0.47038
5 0.0325754 0.07 0.197264 -0.0197426 0.337993
5 0.0325754 -0.07 0.470513 0.0148191 0.362655
5 0.0595998 0.05 0.308842 0.0845515 0.45994
5 0.0595998 -0.05 0.543626 0.0630859 0.435392
5 0.0507211 0.06 0.286773 0.0330845 0.443492
5 0.0507211 -0.06 0.544471 0.0378015 0.403479
5 0.0357425 0.07 0.217887 -0.0210759 0.373226
5 0.0357425 -0.07 0.494835 0.0164163 0.365747
5 0.0766105 -0.02 0.467111 0.138479 0.488079
5 0.0766105 0.02 0.356621 0.158434 0.476369
5 0.0785979 -0.01 0.4366 0.158548 0.495786
5 0.0785979 0.01 0.379128 0.168409 0.487549
5 0.0688745 -0.04 0.525784 0.0907733 0.459561
5 0.0688745 0.04 0.321211 0.121306 0.45741
5 0 0.08 0 0 0
5 0 -0.08 0 0 0
5 0.00256965 0.08 0.00147266 5.39155e-05 -0.00232143
5 0.00256965 -0.08 0.00871439 -0.00124751 0.0548142
5 0.0389677 0.07 0.237618 -0.0200069 0.400041
5 0.0389677 -0.07 0.515779 0.018085 0.368386
5 0.00518642 0.08 0.0167451 -0.000812872 0.00784671
5 0.00518642 -0.08 0.0365517 -0.00245567 0.0962334
5 0.00785119 0.08 0.0365195 -0.0028733 0.0264483
5 0.00785119 -0.08 0.0738897 -0.0031802 0.140615
5 0.0746589 -0.03 0.4983 0.120521 0.479874
5 0.0746589 0.03 0.335345 0.148467 0.466701
5 0.0805853 0 0.407623 0.168784 0.491675
5 0.0632626 0.05 0.309536 0.0940888 0.454418
5 0.0632626 -0.05 0.550253 0.066235 0.43833
5 0.0105648 0.08 0.0583317 -0.00636211 0.0522587
5 0.0105648 -0.08 0.11979 -0.00299875 0.185806
5 0.054221 0.06 0.294187 0.0419343 0.441894
5 0.054221 -0.06 0.555859 0.0401078 0.406804
5 0.0133283 0.08 0.0811213 -0.0113317 0.0842036
5 0.0133283 -0.08 0.174162 -0.00199747 0.22784
5 0.0161424 0.08 0.104073 -0.0177105 0.121158
5 0.0161424 -0.08 0.234855 -0.000455257 0.263259
5 0.0422521 0.07 0.255089 -0.0164781 0.417856
5 0.0422521 -0.07 0.534463 0.0197189 0.371048
5 0.0190081 0.08 0.126317 -0.0253023 0.161836
5 0.0190081 -0.08 0.297335 0.00124136 0.290337
5 0.0219263 0.08 0.147274 -0.0336959 0.204591
5 0.0219263 -0.08 0.356136 0.0027612 0.309169
5 0.0727073 -0.04 0.527886 0.095054 0.462129
5 0.0727073 0.04 0.31985 0.13275 0.451283
5 0.0805853 -0.02 0.466321 0.145737 0.489643
5 0.0805853 0.02 0.356019 0.170605 0.474129
5 0.0826091 -0.01 0.435658 0.167726 0.496546
5 0.0826091 0.01 0.379106 0.180457 0.486818
5 0.0577851 0.06 0.29771 0.0518883 0.436415
5 0.0577851 -0.06 0.565254 0.0420289 0.410313
5 0.0455967 0.07 0.269085 -0.0107425 0.427094
5 0.0455967 -0.07 0.55103 0.0211316 0.373945
5 0.0669925 -0.05 0.554802 0.0689791 0.441223
5 0.0669925 0.05 0.308459 0.104646 0.447092
5 0.0248981 0.08 0.166948 -0.0421469 0.247246
5 0.0248981 -0.08 0.406846 0.00394203 0.321159
5 0.0785979 -0.03 0.497655 0.125901 0.482043
5 0.0785979 0.03 0.333984 0.160413 0.462929
5 0.0846329 0 0.406484 0.17927 0.491666
5 0.0279244 0.08 0.185421 -0.0497123 0.287355
5 0.0279244 -0.08 0.447673 0.004809 0.328327
5 0.0490026 0.07 0.279044 -0.00304316 0.428863
5 0.0490026 -0.07 0.565309 0.0221545 0.377156
5 0.0310063 0.08 0.203116 -0.0554636 0.322477
5 0.0310063 -0.08 0.479732 0.0054928 0.332649
5 0.0614146 -0.06 0.572702 0.0436245 0.413983
5 0.0614146 0.06 0.298286 0.0629045 0.428171
5 0.0766105 -0.04 0.528316 0.0989959 0.464658
5 0.0766105 0.04 0.317577 0.145095 0.444814
5 0.0707909 -0.05 0.557509 0.0714214 0.444078
5 0.0707909 0.05 0.305955 0.116278 0.438596
5 0.0846329 -0.02 0.463998 0.152528 0.491057
5 0.0846329 0.02 0.354565 0.183168 0.471995
5 0.0341446 0.08 0.22026 -0.0587338 0.350575
5 0.0341446 -0.08 0.505692 0.00611642 0.335642
5 0.0866939 -0.01 0.433212 0.176424 0.497095
5 0.0866939 0.01 0.377959 0.192479 0.486207
5 0.052471 0.07 0.285271 0.00636539 0.425148
5 0.052471 -0.07 0.577358 0.0227124 0.380707
5 0.0826091 -0.03 0.495371 0.130775 0.484198
5 0.0826091 0.03 0.331856 0.173145 0.459219
5 0.0373405 0.08 0.236135 -0.0592575 0.370513
5 0.0373405 -0.08 0.527859 0.00670809 0.338267
5 0.0651106 -0.06 0.578376 0.0450086 0.417794
5 0.0651106 0.06 0.297119 0.0749722 0.418086
5 0.0887548 0 0.404107 0.189465 0.491732
5 0.056003 0.07 0.288258 0.0173551 0.417007
5 0.056003 -0.07 0.587285 0.0228506 0.3846
5 0.040595 0.08 0.249859 -0.0570187 0.382066
5 0.040595 -0.08 0.547351 0.00717817 0.341051
5 0.0746589 -0.05 0.558677 0.0736823 0.44692
5 0.0746589 0.05 0.302462 0.128934 0.429453
5 0.0805853 -0.04 0.527332 0.10267 0.467196
5 0.0805853 0.04 0.314735 0.158323 0.438383
5 0.00128482 0.09 -0.00277124 -0.000902893 -0.00954133
5 0.00128482 -0.09 0.00057712 -0.000720382 0.0363529
5 0.00387803 0.09 0.0145556 -0.00496101 0.000413303
5 0.00387803 -0.09 0.0256581 -0.00223595 0.0779639
5 0.00651881 0.09 0.0380166 -0.0106246 0.0207424
5 0.00651881 -0.09 0.062733 -0.00380811 0.121912
5 0.00920802 0.09 0.0635121 -0.0176721 0.0487292
5 0.00920802 -0.09 0.110123 -0.00452392 0.166215
5 0.0119465 0.09 0.0893953 -0.0261305 0.0831126
5 0.0119465 -0.09 0.167561 -0.00443257 0.207023
5 0.0887548 -0.02 0.46039 0.158844 0.492476
5 0.0887548 0.02 0.35239 0.196022 0.470115
5 0.0147353 0.09 0.114642 -0.0359625 0.122417
5 0.0147353 -0.09 0.232424 -0.00381967 0.241015
5 0.0439092 0.08 0.260745 -0.0522034 0.385846
5 0.0439092 -0.08 0.564451 0.00738835 0.344254
5 0.0688745 -0.06 0.582539 0.046328 0.421735
5 0.0688745 0.06 0.294804 0.0880852 0.40696
5 0.0908536 -0.01 0.429484 0.184574 0.49781
5 0.0908536 0.01 0.375772 0.204386 0.485817
5 0.0175752 0.09 0.138287 -0.0469782 0.164843
5 0.0175752 -0.09 0.299417 -0.0030837 0.266626
5 0.0866939 -0.03 0.491748 0.135192 0.486392
5 0.0866939 0.03 0.32934 0.186595 0.455737
5 0.0595998 0.07 0.288233 0.0297222 0.405783
5 0.0595998 -0.07 0.595277 0.0227075 0.388829
5 0.0204672 0.09 0.159664 -0.0587701 0.208136
5 0.0204672 -0.09 0.362272 -0.00255223 0.284029
5 0.0472842 0.08 0.268442 -0.045127 0.383024
5 0.0472842 -0.08 0.579191 0.00724012 0.347997
5 0.0929523 0 0.400664 0.199293 0.49217
5 0.0234122 0.09 0.178802 -0.0705756 0.249662
5 0.0234122 -0.09 0.415954 -0.00239233 0.294641
5 0.0785979 -0.05 0.55863 0.075881 0.449795
5 0.0785979 0.05 0.298517 0.142572 0.420168
5 0.0846329 -0.04 0.525219 0.106146 0.469795
5 0.0846329 0.04 0.311685 0.172319 0.432289
5 0.0264113 0.09 0.196153 -0.0813677 0.286695
5 0.0264113 -0.09 0.458317 -0.00255673 0.300518
5 0.0727073 -0.06 0.585489 0.0477399 0.425804
5 0.0727073 0.06 0.291731 0.102105 0.395457
5 0.0632626 -0.07 0.601654 0.0224701 0.393382
5 0.0632626 0.07 0.286533 0.0432589 0.392539
5 0.0294653 0.09 0.211956 -0.0900698 0.316951
5 0.0294653 -0.09 0.490872 -0.00286936 0.303761
5 0.0507211 0.08 0.273014 -0.0360625 0.375029
5 0.0507211 -0.08 0.591701 0.00672073 0.352336
5 0.0929523 -0.02 0.455778 0.164667 0.494058
5 0.0929523 0.02 0.349575 0.209051 0.468732
5 0.0950896 -0.01 0.424723 0.192113 0.498937
5 0.0950896 0.01 0.372674 0.216104 0.486115
5 0.0908536 -0.03 0.487115 0.139191 0.488608
5 0.0908536 0.03 0.326487 0.200632 0.4527
5 0.0325754 0.09 0.226522 -0.0958077 0.338974
5 0.0325754 -0.09 0.517234 -0.00320303 0.305994
5 0.0826091 -0.05 0.557674 0.0781237 0.452751
5 0.0826091 0.05 0.294582 0.157169 0.411214
5 0.054221 0.08 0.274822 -0.0252252 0.363298
5 0.054221 -0.08 0.602231 0.00591393 0.357291
5 0.0357425 0.09 0.23937 -0.0983094 0.352114
5 0.0357425 -0.09 0.54019 -0.00356657 0.308171
5 0.0669925 -0.07 0.606795 0.0223507 0.398243
5 0.0669925 0.07 0.28395 0.0578995 0.378293
5 0.0972268 0 0.396345 0.208688 0.493221
5 0.0766105 -0.06 0.587508 0.0493925 0.430007
5 0.0766105 0.06 0.288364 0.116901 0.384087
5 0.0887548 -0.04 0.522254 0.109485 0.472494
5 0.0887548 0.04 0.308629 0.186883 0.426785
5 0.0389677 0.09 0.249666 -0.0976375 0.356673
5 0.0389677 -0.09 0.560637 -0.0041023 0.310765
5 0.0577851 -0.08 0.611072 0.00497926 0.362859
5 0.0577851 0.08 0.274258 -0.0128593 0.349093
5 0.0972268 -0.02 0.45043 0.169978 0.495981
5 0.0972268 0.02 0.346222 0.222143 0.468038
5 0.0422521 0.09 0.257068 -0.0939516 0.353696
5 0.0422521 -0.09 0.578527 -0.00498889 0.314006
5 0.0707909 -0.07 0.611052 0.0225612 0.403397
5 0.0707909 0.07 0.28085 0.0735214 0.363856
5 0.0950896 -0.03 0.481788 0.142795 0.490879
5 0.0950896 0.03 0.323367 0.215088 0.450297
5 0.0994033 -0.01 0.419175 0.198991 0.500709
5 0.0994033 0.01 0.368804 0.227548 0.487125
5 0 0.1 0 0 0
5 0 -0.1 0 0 0
5 0.00256965 0.1 0.0131721 -0.00388357 0.0160535
5 0.00256965 -0.1 0.0185152 -0.00159994 0.0546277
5 0.0866939 -0.05 0.55608 0.0804959 0.455842
5 0.0866939 0.05 0.29096 0.172371 0.402982
5 0.00518642 0.1 0.0361164 -0.00955179 0.0377916
5 0.00518642 -0.1 0.0545096 -0.00341525 0.0960468
5 0.00785119 0.1 0.0633473 -0.0165328 0.0650774
5 0.00785119 -0.1 0.103016 -0.00500411 0.137861
5 0.0805853 -0.06 0.588841 0.0514122 0.434351
5 0.0805853 0.06 0.285193 0.132157 0.373231
5 0.0105648 0.1 0.0914043 -0.0247244 0.0979143
5 0.0105648 -0.1 0.161768 -0.00597628 0.176843
5 0.0614146 -0.08 0.618564 0.00411666 0.369021
5 0.0614146 0.08 0.272005 0.000739297 0.333552
5 0.0133283 0.1 0.118286 -0.034082 0.135373
5 0.0133283 -0.1 0.227658 -0.00649992 0.209921
5 0.0455967 0.09 0.261741 -0.0876398 0.344739
5 0.0455967 -0.09 0.593788 -0.00630828 0.318017
5 0.0929523 -0.04 0.518692 0.112728 0.475335
5 0.0929523 0.04 0.305598 0.201835 0.422064
5 0.0161424 0.1 0.142895 -0.0446394 0.175374
5 0.0161424 -0.1 0.295661 -0.00686415 0.23534
5 0.10158 0 0.391333 0.217625 0.494961
5 0.0190081 0.1 0.164654 -0.0559742 0.215154
5 0.0190081 -0.1 0.359893 -0.00732725 0.252915
5 0.0746589 -0.07 0.614717 0.023295 0.408823
5 0.0746589 0.07 0.277655 0.0896907 0.349917
5 0.0219263 0.1 0.183449 -0.06741 0.251823
5 0.0219263 -0.1 0.415451 -0.00801217 0.263747
5 0.0490026 0.09 0.2639 -0.0790802 0.331397
5 0.0490026 -0.09 0.606642 -0.00801747 0.322872
5 0.0248981 0.1 0.199533 -0.0782727 0.282612
5 0.0248981 -0.1 0.460134 -0.0088802 0.269752
5 0.0651106 -0.08 0.625052 0.00353855 0.375744
5 0.0651106 0.08 0.2689 0.0153288 0.317758
5 0.10158 -0.02 0.444564 0.17477 0.498454
5 0.10158 0.02 0.342416 0.2352 0.468034
5 0.0908536 -0.05 0.55407 0.0830623 0.459137
5 0.0908536 0.05 0.287727 0.187941 0.395718
5 0.0846329 -0.06 0.589683 0.0538962 0.438844
5 0.0846329 0.06 0.282458 0.147728 0.363258
5 0.0279244 0.1 0.213352 -0.087573 0.305314
5 0.0279244 -0.1 0.495045 -0.00981546 0.273029
5 0.0994033 -0.03 0.476031 0.146016 0.493399
5 0.0994033 0.03 0.320041 0.229839 0.448614
5 0.052471 0.09 0.263842 -0.0684894 0.314705
5 0.052471 -0.09 0.617499 -0.00996664 0.328612
5 0.103796 -0.01 0.413044 0.205205 0.50326
5 0.103796 0.01 0.364307 0.238761 0.488749
5 0.0310063 0.1 0.225193 -0.0945427 0.319025
5 0.0310063 -0.1 0.523187 -0.0107586 0.275271
5 0.0972268 -0.04 0.514732 0.115901 0.478409
5 0.0972268 0.04 0.302588 0.217011 0.418234
5 0.0785979 -0.07 0.618006 0.0247122 0.414492
5 0.0785979 0.07 0.274822 0.10641 0.336807
5 0.0688745 -0.08 0.630837 0.00345045 0.382983
5 0.0688745 0.08 0.265445 0.0307741 0.302593
5 0.0341446 0.1 0.234824 -0.0988515 0.324219
5 0.0341446 -0.1 0.547173 -0.011762 0.277542
5 0.056003 0.09 0.261916 -0.0561287 0.296327
5 0.056003 -0.09 0.626783 -0.0119409 0.335247
5 0.106012 0 0.385779 0.226109 0.497425
5 0.0373405 0.1 0.24152 -0.100445 0.322042
5 0.0373405 -0.1 0.568207 -0.0129515 0.280416
5 0.0887548 -0.06 0.590167 0.0569102 0.443495
5 0.0887548 0.06 0.280053 0.163512 0.354518
5 0.0950896 -0.05 0.551795 0.0858674 0.462717
5 0.0950896 0.05 0.284809 0.203684 0.389539
5 0.106012 -0.02 0.438308 0.179065 0.501679
5 0.106012 0.02 0.338234 0.248146 0.468684
5 0.040595 0.1 0.245038 -0.0993908 0.313541
5 0.040595 -0.1 0.586543 -0.014447 0.284194
5 0.0595998 -0.09 0.634946 -0.0137005 0.342762
5 0.0595998 0.09 0.258625 -0.0423819 0.27725
5 0.103796 -0.03 0.470003 0.148869 0.496449
5 0.103796 0.03 0.316512 0.244659 0.447647
5 0.0727073 -0.08 0.636148 0.00403561 0.390679
5 0.0727073 0.08 0.261888 0.0469389 0.288671
5 0.0826091 -0.07 0.621054 0.0269326 0.420369
5 0.0826091 0.07 0.27285 0.122482 0.324732
5 0.108269 -0.01 0.40646 0.210811 0.50669
5 0.108269 0.01 0.359301 0.249663 0.491003
5 0.10158 -0.04 0.510478 0.119008 0.481856
5 0.10158 0.04 0.299594 0.232252 0.415315
5 0.0439092 0.1 0.245537 -0.0958978 0.299964
5 0.0439092 -0.1 0.602264 -0.0162881 0.289044
5 0.00128482 0.11 0.00938413 -0.00190166 0.0226155
5 0.00128482 -0.11 0.0073371 -0.000762789 0.0324033
5 0.0632626 -0.09 0.642382 -0.0150107 0.351114
5 0.0632626 0.09 0.254627 -0.0276378 0.258631
5 0.00387803 0.11 0.031523 -0.00776945 0.0507295
5 0.00387803 -0.11 0.0404928 -0.00268092 0.0717969
5 0.00651881 0.11 0.0603747 -0.0148531 0.079285
5 0.00651881 -0.11 0.089161 -0.00493633 0.112521
5 0.00920802 0.11 0.0914906 -0.0229828 0.111558
5 0.00920802 -0.11 0.150057 -0.0067483 0.150801
5 0.110526 0 0.379758 0.234154 0.500715
5 0.0472842 0.1 0.243173 -0.090201 0.282879
5 0.0472842 -0.1 0.61563 -0.018409 0.295059
5 0.0929523 -0.06 0.590362 0.0604878 0.44832
5 0.0929523 0.06 0.277824 0.179186 0.347145
5 0.0119465 0.11 0.121224 -0.0321138 0.148264
5 0.0119465 -0.11 0.219343 -0.00820044 0.18334
5 0.0766105 -0.08 0.641139 0.00544527 0.398763
5 0.0766105 0.08 0.258362 0.0635388 0.276387
5 0.0147353 0.11 0.147888 -0.0421229 0.187708
5 0.0147353 -0.11 0.291316 -0.00954707 0.20831
5 0.0994033 -0.05 0.549312 0.0889269 0.466642
5 0.0994033 0.05 0.282135 0.219438 0.384483
5 0.0175752 0.11 0.170768 -0.0534962 0.226537
5 0.0175752 -0.11 0.359498 -0.0110062 0.225414
5 0.0866939 -0.07 0.623922 0.0300335 0.426415
5 0.0866939 0.07 0.271441 0.138896 0.314099
5 0.0204672 0.11 0.189901 -0.0646543 0.261107
5 0.0204672 -0.11 0.418395 -0.012667 0.235593
5 0.0507211 0.1 0.238324 -0.0825225 0.263511
5 0.0507211 -0.1 0.627065 -0.0206603 0.30228
5 0.0669925 -0.09 0.649379 -0.015656 0.36024
5 0.0669925 0.09 0.250491 -0.0122007 0.241565
5 0.110526 -0.02 0.431652 0.182925 0.505889
5 0.110526 0.02 0.33373 0.260936 0.469965
5 0.108269 -0.03 0.463721 0.151378 0.500319
5 0.108269 0.03 0.312813 0.259506 0.447336
5 0.0234122 0.11 0.20543 -0.0756421 0.288394
5 0.0234122 -0.11 0.465192 -0.0144373 0.240727
5 0.0264113 0.11 0.21775 -0.0855075 0.305704
5 0.0264113 -0.11 0.501081 -0.0161346 0.243124
5 0.112825 -0.01 0.399427 0.215925 0.511229
5 0.112825 0.01 0.353843 0.260222 0.493941
5 0.106012 -0.04 0.505911 0.122039 0.48584
5 0.106012 0.04 0.29664 0.247445 0.413257
5 0.0805853 -0.08 0.645893 0.00779382 0.40715
5 0.0805853 0.08 0.255115 0.0802961 0.265835
5 0.054221 0.1 0.231367 -0.0730949 0.243117
5 0.054221 -0.1 0.637023 -0.0228437 0.310709
5 0.0294653 0.11 0.227552 -0.0933488 0.31191
5 0.0294653 -0.11 0.529918 -0.0177013 0.244714
5 0.0972268 -0.06 0.590267 0.0646299 0.453321
5 0.0972268 0.06 0.275704 0.194651 0.341054
5 0.0707909 -0.09 0.656122 -0.0154541 0.370053
5 0.0707909 0.09 0.24649 0.00388129 0.226653
5 0.0908536 -0.07 0.626594 0.0340503 0.43259
5 0.0908536 0.07 0.270083 0.154849 0.305268
5 0.0325754 0.11 0.234746 -0.0989458 0.308265
5 0.0325754 -0.11 0.554728 -0.0192608 0.246616
5 0.115123 0 0.373225 0.241874 0.504961
5 0.103796 -0.05 0.546562 0.0922201 0.470934
5 0.103796 0.05 0.279687 0.23508 0.380515
5 0.0577851 -0.1 0.645922 -0.0247456 0.320309
5 0.0577851 0.1 0.222836 -0.0620862 0.223407
5 0.0357425 0.11 0.238658 -0.102344 0.297523
5 0.0357425 -0.11 0.576546 -0.0210178 0.249388
5 0.0846329 -0.08 0.650427 0.0111584 0.415742
5 0.0846329 0.08 0.252432 0.0971799 0.257076
5 0.0389677 0.11 0.238385 -0.103491 0.281857
5 0.0389677 -0.11 0.595459 -0.0231195 0.253339
5 0.112825 -0.03 0.456999 0.153589 0.50532
5 0.112825 0.03 0.30896 0.274358 0.447582
5 0.115123 -0.02 0.424389 0.186442 0.511348
5 0.115123 0.02 0.328905 0.273562 0.471848
5 0.0746589 -0.09 0.662702 -0.0142594 0.380447
5 0.0746589 0.09 0.242558 0.0206676 0.214252
5 0.0614146 -0.1 0.654107 -0.0261608 0.331009
5 0.0614146 0.1 0.213513 -0.0497822 0.205727
5 0.110526 -0.04 0.500863 0.124978 0.49055
5 0.110526 0.04 0.293757 0.262542 0.411956
5 0.0422521 0.11 0.235034 -0.102483 0.261936
5 0.0422521 -0.11 0.611554 -0.0255776 0.258667
5 0.117464 -0.01 0.391741 0.220704 0.517079
5 0.117464 0.01 0.347886 0.27065 0.497599
5 0.10158 -0.06 0.5898 0.0693053 0.458478
5 0.10158 0.06 0.273667 0.209869 0.33615
5 0.0950896 -0.07 0.62899 0.0389728 0.438837
5 0.0950896 0.07 0.268675 0.170275 0.298052
5 0.0455967 0.11 0.228304 -0.0995159 0.239481
5 0.0455967 -0.11 0.625192 -0.0282781 0.265489
5 0.108269 -0.05 0.543356 0.0956903 0.475658