# UMean  POINT_DATA 90431
# x  y  z  UMean_x  UMean_y  UMean_z
5 0 0 0 0 0
5 0.00256965 0 -0.00329314 -9.77871e-05 0.0077962
5 0.00518642 0 0.00272814 -0.000342228 0.0150912
5 0.00785119 0 0.0142486 -0.000457756 0.0253525
5 0.00128482 0.01 -0.00763419 6.05656e-05 0.00507556
5 0.00128482 -0.01 -0.00173245 3.59555e-05 0.00500299
5 0.0105648 0 0.0292256 -0.000391846 0.0374206
5 0.00387803 0.01 -0.00649822 -0.000263031 0.010476
5 0.00387803 -0.01 0.00269273 -0.000224683 0.010631
5 0.00651881 0.01 0.00125175 -0.000525515 0.019313
5 0.00651881 -0.01 0.0134678 -0.000355716 0.0199462
5 0.0133283 0 0.0457821 -9.48301e-05 0.0503047
5 0.00920802 0.01 0.0138352 -0.000684541 0.0304452
5 0.00920802 -0.01 0.0284418 -0.000265257 0.0317073
5 0.0119465 0.01 0.0291102 -0.000691856 0.0427411
5 0.0119465 -0.01 0.0455177 7.43e-05 0.0447911
5 0.0161424 0 0.0626014 0.00047136 0.0633209
5 0.0147353 0.01 0.0453078 -0.00049278 0.0553611
5 0.0147353 -0.01 0.0631958 0.000731091 0.0583279
5 0.0190081 0 0.078908 0.00129756 0.0760916
5 0 0.02 0 0 0
5 0 -0.02 0 0 0
5 0.00256965 0.02 -0.0116882 -3.49438e-05 0.00742178
5 0.00256965 -0.02 0.0035185 -6.63101e-05 0.00803062
5 0.0175752 0.01 0.0613211 -6.64123e-05 0.0678808
5 0.0175752 -0.01 0.080584 0.00171367 0.0717163
5 0.00518642 0.02 -0.0091584 -0.000295406 0.0146726
5 0.00518642 -0.02 0.0123023 -0.000249878 0.0157962
5 0.00785119 0.02 -0.000521277 -0.000520459 0.0247403
5 0.00785119 -0.02 0.0262311 -0.000288399 0.0267885
5 0.0219263 0 0.0943266 0.00235199 0.0884474
5 0.0105648 0.02 0.0123019 -0.000683676 0.0363946
5 0.0105648 -0.02 0.0431092 -0.000115249 0.0397769
5 0.0204672 0.01 0.0765723 0.000549017 0.0801075
5 0.0204672 -0.01 0.0971576 0.00299413 0.0846642
5 0.0133283 0.02 0.0273074 -0.000730361 0.0486829
5 0.0133283 -0.02 0.06116 0.000319603 0.0537467
5 0.0248981 0 0.108795 0.00360562 0.100329
5 0.0234122 0.01 0.0908866 0.00133463 0.0919627
5 0.0234122 -0.01 0.112693 0.00453043 0.0970574
5 0.0161424 0.02 0.0429689 -0.000613147 0.0610281
5 0.0161424 -0.02 0.0792765 0.00107137 0.0679377
5 0.0190081 0.02 0.0583843 -0.00032652 0.0731557
5 0.0190081 -0.02 0.096862 0.00215639 0.0818559
5 0.0279244 0 0.122458 0.00502865 0.111723
5 0.0264113 0.01 0.104391 0.00227215 0.103407
5 0.0264113 -0.01 0.127213 0.00628555 0.108891
5 0.0219263 0.02 0.0731588 0.000117595 0.084947
5 0.0219263 -0.02 0.11363 0.00356326 0.095245
5 0.00128482 0.03 -0.014796 0.00014511 0.00425604
5 0.00128482 -0.03 0.00312461 5.88245e-05 0.00523542
5 0.00387803 0.03 -0.0178245 -8.24619e-05 0.0098803
5 0.00387803 -0.03 0.00998997 -0.000135372 0.0112539
5 0.00651881 0.03 -0.0135617 -0.000310655 0.0190224
5 0.00651881 -0.03 0.0230606 -0.000283762 0.0213554
5 0.0310063 0 0.135517 0.00659017 0.122612
5 0.0294653 0.01 0.117303 0.00334766 0.114411
5 0.0294653 -0.01 0.140927 0.00820956 0.120186
5 0.00920802 0.03 -0.00360862 -0.000561157 0.0301826
5 0.00920802 -0.03 0.0399567 -0.000248852 0.0341473
5 0.0248981 0.02 0.0872313 0.000708132 0.0963378
5 0.0248981 -0.02 0.129499 0.00526354 0.107994
5 0.0119465 0.03 0.0098733 -0.000797171 0.0422115
5 0.0119465 -0.03 0.0585235 -2.11367e-05 0.0484644
5 0.0147353 0.03 0.0249412 -0.000939631 0.05442
5 0.0147353 -0.03 0.0774061 0.000494261 0.063406
5 0.0325754 0.01 0.129804 0.00454904 0.124907
5 0.0325754 -0.01 0.154037 0.0102548 0.130946
5 0.0341446 0 0.148118 0.00826038 0.132934
5 0.0279244 0.02 0.100695 0.00143056 0.107293
5 0.0279244 -0.02 0.144531 0.00721605 0.120064
5 0.0175752 0.03 0.0403086 -0.000953726 0.0664525
5 0.0175752 -0.03 0.0959235 0.00134664 0.0783031
5 0.0204672 0.03 0.055338 -0.000834888 0.0781842
5 0.0204672 -0.03 0.113786 0.00257134 0.0927427
5 0.0310063 0.02 0.113654 0.00227385 0.117787
5 0.0310063 -0.02 0.15884 0.00936259 0.131448
5 0.0357425 0.01 0.141951 0.00586549 0.134778
5 0.0357425 -0.01 0.166682 0.0123726 0.141107
5 0.0373405 0 0.160327 0.0100026 0.142596
5 0.0234122 0.03 0.0698412 -0.000578273 0.0895358
5 0.0234122 -0.03 0.130886 0.00415746 0.106518
5 0.0341446 0.02 0.126156 0.0032264 0.127775
5 0.0341446 -0.02 0.172517 0.0116377 0.142131
5 0.0264113 0.03 0.0838089 -0.000195837 0.100448
5 0.0264113 -0.03 0.147207 0.00608111 0.119511
5 0 0.04 0 0 0
5 0 -0.04 0 0 0
5 0.00256965 0.04 -0.0207621 2.98101e-05 0.00648304
5 0.00256965 -0.04 0.00907308 1.67527e-05 0.00828128
5 0.0389677 0.01 0.153749 0.00726242 0.143919
5 0.0389677 -0.01 0.17893 0.0145102 0.150584
5 0.00518642 0.04 -0.0219466 -0.000207404 0.0140861
5 0.00518642 -0.04 0.0200216 -0.000116881 0.0162319
5 0.040595 0 0.172178 0.0117691 0.151534
5 0.00785119 0.04 -0.0163201 -0.000467617 0.0243786
5 0.00785119 -0.04 0.0358125 -0.000162267 0.0276893
5 0.0105648 0.04 -0.00579061 -0.000734048 0.0359443
5 0.0105648 -0.04 0.0541141 -6.01299e-05 0.0414723
5 0.0294653 0.03 0.0972779 0.000298456 0.110909
5 0.0294653 -0.03 0.162779 0.00828843 0.131668
5 0.0133283 0.04 0.00759396 -0.000954222 0.0478701
5 0.0133283 -0.04 0.0732392 0.000240867 0.0565867
5 0.0373405 0.02 0.138209 0.00426367 0.137203
5 0.0373405 -0.02 0.185618 0.0139744 0.152086
5 0.0161424 0.04 0.0222024 -0.00106915 0.0597016
5 0.0161424 -0.04 0.0922733 0.00081588 0.0722412
5 0.0422521 0.01 0.165228 0.00867975 0.152319
5 0.0422521 -0.01 0.19081 0.0166246 0.159315
5 0.0439092 0 0.183683 0.0135091 0.159718
5 0.0325754 0.03 0.110233 0.000900447 0.120923
5 0.0325754 -0.03 0.17762 0.0106981 0.142993
5 0.0190081 0.04 0.0370309 -0.00105296 0.0712573
5 0.0190081 -0.04 0.110833 0.00171206 0.0878572
5 0.040595 0.02 0.149835 0.00534069 0.146038
5 0.040595 -0.02 0.198174 0.0163088 0.161285
5 0.0219263 0.04 0.0516134 -0.000896613 0.0824894
5 0.0219263 -0.04 0.128793 0.00295258 0.103052
5 0.0357425 0.03 0.122637 0.00159083 0.130494
5 0.0357425 -0.03 0.191732 0.013226 0.153481
5 0.0455967 0.01 0.17641 0.0100571 0.160024
5 0.0455967 -0.01 0.202286 0.0186755 0.167217
5 0.0248981 0.04 0.0658093 -0.000607551 0.0933858
5 0.0248981 -0.04 0.146117 0.00453222 0.117576
5 0.0472842 0 0.194829 0.015181 0.167136
5 0.0439092 0.02 0.161077 0.00640423 0.154245
5 0.0439092 -0.02 0.210206 0.0185904 0.169684
5 0.0279244 0.04 0.0795947 -0.000206869 0.103938
5 0.0279244 -0.04 0.162779 0.00641434 0.131255
5 0.0389677 0.03 0.134501 0.0023362 0.139623
5 0.0389677 -0.03 0.205129 0.0157893 0.163175
5 0.0490026 0.01 0.187333 0.0113639 0.167025
5 0.0490026 -0.01 0.21329 0.020628 0.17428
5 0.00128482 0.05 -0.0217232 0.000137515 0.00286011
5 0.00128482 -0.05 0.00713102 0.000125197 0.00544726
5 0.00387803 0.05 -0.0287055 -8.09562e-05 0.0089366
5 0.00387803 -0.05 0.0160479 1.83382e-05 0.0111894
5 0.00651881 0.05 -0.0276942 -0.000355584 0.0185065
5 0.00651881 -0.05 0.0309903 -6.67469e-05 0.0211303
5 0.0310063 0.04 0.0929455 0.000288636 0.114137
5 0.0310063 -0.04 0.17876 0.00853697 0.143979
5 0.0507211 0 0.205601 0.0167594 0.173775
5 0.00920802 0.05 -0.0204145 -0.000643114 0.0298047
5 0.00920802 -0.05 0.0492454 -4.97015e-05 0.0341264
5 0.0472842 0.02 0.171978 0.00741271 0.161736
5 0.0472842 -0.02 0.221733 0.0207879 0.177243
5 0.0119465 0.05 -0.00901054 -0.000934793 0.0415805
5 0.0119465 -0.05 0.0687339 7.92008e-05 0.0491536
5 0.0422521 0.03 0.145867 0.00308465 0.148291
5 0.0422521 -0.03 0.21783 0.0183118 0.172068
5 0.0147353 0.05 0.00457439 -0.00114533 0.0532704
5 0.0147353 -0.05 0.0882966 0.000411216 0.0653256
5 0.0341446 0.04 0.105809 0.000865625 0.123966
5 0.0341446 -0.04 0.194046 0.0108282 0.1557
5 0.0175752 0.05 0.0189882 -0.00123794 0.0646656
5 0.0175752 -0.05 0.10747 0.00101153 0.0819328
5 0.052471 0.01 0.19796 0.0125859 0.173217
5 0.052471 -0.01 0.223825 0.0224601 0.180581
5 0.0204672 0.05 0.0334913 -0.00118528 0.0757289
5 0.0204672 -0.05 0.126153 0.00191892 0.0984532
5 0.054221 0 0.215962 0.0182464 0.179638
5 0.0507211 0.02 0.182545 0.00834492 0.168371
5 0.0507211 -0.02 0.23278 0.0228838 0.183976
5 0.0455967 0.03 0.156806 0.0037957 0.156348
5 0.0455967 -0.03 0.229902 0.0207501 0.180137
5 0.0373405 0.04 0.11814 0.00150767 0.133386
5 0.0373405 -0.04 0.208644 0.0132186 0.166436
5 0.0234122 0.05 0.0477857 -0.000987971 0.0865107
5 0.0234122 -0.05 0.144351 0.00316286 0.114497
5 0.0264113 0.05 0.0618041 -0.000668053 0.0970509
5 0.0264113 -0.05 0.162026 0.00472781 0.12978
5 0.056003 0.01 0.208146 0.0137488 0.178573
5 0.056003 -0.01 0.23392 0.0241913 0.186181
5 0.040595 0.04 0.129949 0.00219037 0.142332
5 0.040595 -0.04 0.222589 0.0156432 0.176245
5 0.0490026 0.03 0.167364 0.0044344 0.163549
5 0.0490026 -0.03 0.241455 0.0230984 0.18734
5 0.0577851 0 0.225832 0.0196508 0.184784
5 0.054221 0.02 0.192715 0.00920269 0.174081
5 0.054221 -0.02 0.243371 0.0248749 0.189943
5 0.0294653 0.05 0.0754909 -0.000261946 0.107345
5 0.0294653 -0.05 0.179108 0.00656043 0.144064
5 0.0439092 0.04 0.141278 0.00288921 0.150674
5 0.0439092 -0.04 0.235937 0.0180581 0.185183
5 0.0325754 0.05 0.0887827 0.000217707 0.117374
5 0.0325754 -0.05 0.195535 0.00860142 0.157194
5 0 0.06 0 0 0
5 0 -0.06 0 0 0
5 0.00256965 0.06 -0.0286726 -4.80452e-05 0.00592663
5 0.00256965 -0.06 0.012337 8.29631e-05 0.00879417
5 0.00518642 0.06 -0.0331517 -0.000346637 0.0137874
5 0.00518642 -0.06 0.0248129 5.76613e-05 0.0168093
5 0.0595998 0.01 0.217713 0.0148409 0.183215
5 0.0595998 -0.01 0.243551 0.0258226 0.19117
5 0.052471 0.03 0.177526 0.00499571 0.169696
5 0.052471 -0.03 0.252552 0.0253494 0.193704
5 0.00785119 0.06 -0.0302869 -0.000680619 0.0239522
5 0.00785119 -0.06 0.0419102 0.000122767 0.0285139
5 0.0105648 0.06 -0.0221344 -0.000981951 0.0350744
5 0.0105648 -0.06 0.0611591 0.000342626 0.0429097
5 0.0577851 0.02 0.20236 0.00998687 0.178949
5 0.0577851 -0.02 0.253503 0.0267646 0.195237
5 0.0614146 0 0.235132 0.0209832 0.189376
5 0.0357425 0.05 0.101584 0.00075365 0.127077
5 0.0357425 -0.05 0.211298 0.010788 0.169135
5 0.0133283 0.06 -0.0107343 -0.00121531 0.0463435
5 0.0133283 -0.06 0.0810366 0.000746476 0.0590556
5 0.0472842 0.04 0.152163 0.00357802 0.158219
5 0.0472842 -0.04 0.248756 0.020448 0.193282
5 0.0161424 0.06 0.00233904 -0.00133223 0.0574024
5 0.0161424 -0.06 0.100858 0.0013889 0.0761521
5 0.0190081 0.06 0.016055 -0.00130758 0.0681326
5 0.0190081 -0.06 0.120394 0.00229747 0.0935618
5 0.0389677 0.05 0.113841 0.00135016 0.136352
5 0.0389677 -0.05 0.226421 0.0130719 0.179954
5 0.056003 0.03 0.187231 0.00548062 0.17484
5 0.056003 -0.03 0.26319 0.0274991 0.199308
5 0.0219263 0.06 0.0298443 -0.00112904 0.0785465
5 0.0219263 -0.06 0.139596 0.00348206 0.110775
5 0.0632626 0.01 0.226593 0.015889 0.187397
5 0.0632626 -0.01 0.252672 0.0273809 0.195725
5 0.0614146 0.02 0.211353 0.0107004 0.183176
5 0.0614146 -0.02 0.263159 0.0285636 0.200001
5 0.0507211 0.04 0.162599 0.00422861 0.164789
5 0.0507211 -0.04 0.261095 0.0228086 0.200554
5 0.0248981 0.06 0.043466 -0.000795983 0.0887071
5 0.0248981 -0.06 0.15845 0.00492733 0.127367
5 0.0651106 0 0.243824 0.0222598 0.193596
5 0.0422521 0.05 0.125589 0.00199065 0.145062
5 0.0422521 -0.05 0.240978 0.0154003 0.189786
5 0.0279244 0.06 0.056836 -0.000321031 0.0986521
5 0.0279244 -0.06 0.176897 0.00659885 0.143012
5 0.0595998 0.03 0.196352 0.00587736 0.179169
5 0.0595998 -0.03 0.273353 0.0295459 0.20429
5 0.054221 0.04 0.172526 0.00481567 0.170336
5 0.054221 -0.04 0.272957 0.0251402 0.20703
5 0.0310063 0.06 0.0699007 0.000279341 0.10838
5 0.0310063 -0.06 0.194847 0.0084495 0.157494
5 0.0455967 0.05 0.136853 0.00268603 0.152998
5 0.0455967 -0.05 0.255039 0.0177707 0.198746
5 0.0669925 0.01 0.234754 0.0168995 0.191297
5 0.0669925 -0.01 0.261281 0.0288704 0.199966
5 0.0651106 0.02 0.219624 0.0113536 0.186966
5 0.0651106 -0.02 0.272353 0.0302868 0.204404
5 0.0688745 0 0.25194 0.0234895 0.197538
5 0.0341446 0.06 0.0825949 0.000991666 0.117853
5 0.0341446 -0.06 0.212235 0.0104357 0.170736
5 0.0490026 0.05 0.147633 0.0033961 0.159983
5 0.0490026 -0.05 0.268633 0.0201735 0.206909
5 0.00128482 0.07 -0.0269982 1.41222e-05 0.00268147
5 0.00128482 -0.07 0.00810113 7.43831e-05 0.00621828
5 0.0632626 0.03 0.204757 0.00619464 0.182922
5 0.0632626 -0.03 0.283064 0.0315056 0.20882
5 0.00387803 0.07 -0.0372647 -0.000262899 0.00922931
5 0.00387803 -0.07 0.0180692 0.000113929 0.0123226
5 0.0577851 0.04 0.181853 0.00530992 0.174969
5 0.0577851 -0.04 0.284335 0.0274396 0.212796
5 0.00651881 0.07 -0.0389426 -0.000687161 0.0184788
5 0.00651881 -0.07 0.0341468 0.000165122 0.0225966
5 0.00920802 0.07 -0.0340954 -0.00103667 0.0290206
5 0.00920802 -0.07 0.0532613 0.000442417 0.0362044
5 0.0373405 0.06 0.0948676 0.00181135 0.126989
5 0.0373405 -0.06 0.229039 0.0125248 0.182797
5 0.0119465 0.07 -0.0250153 -0.00131328 0.0398936
5 0.0119465 -0.07 0.0733991 0.000898638 0.052157
5 0.0707909 -0.01 0.269478 0.0303133 0.203959
5 0.0707909 0.01 0.242248 0.0178752 0.194933
5 0.0147353 0.07 -0.0134835 -0.00146787 0.0506313
5 0.0147353 -0.07 0.0937202 0.00159694 0.0695893
5 0.0688745 -0.02 0.281158 0.0319451 0.208584
5 0.0688745 0.02 0.227163 0.0119502 0.190416
5 0.0175752 0.07 -0.000720489 -0.0014778 0.061044
5 0.0175752 -0.07 0.113948 0.00253604 0.087764
5 0.040595 0.06 0.106717 0.00273346 0.135673
5 0.040595 -0.06 0.245273 0.0146868 0.193815
5 0.052471 0.05 0.157874 0.0040884 0.16593
5 0.052471 -0.05 0.281744 0.0226139 0.214266
5 0.0727073 0 0.259588 0.0246823 0.201212
5 0.0204672 0.07 0.0124637 -0.00132929 0.0710936
5 0.0204672 -0.07 0.134006 0.00372358 0.1061
5 0.0614146 0.04 0.190482 0.00569439 0.178882
5 0.0614146 -0.04 0.295238 0.0297034 0.21798
5 0.0669925 0.03 0.212393 0.00643138 0.18625
5 0.0669925 -0.03 0.292397 0.0333908 0.213105
5 0.0234122 0.07 0.0256391 -0.00101356 0.0808547
5 0.0234122 -0.07 0.153879 0.00512314 0.124051
5 0.0439092 0.06 0.118159 0.00374653 0.14376
5 0.0439092 -0.06 0.260966 0.0169089 0.203943
5 0.0264113 0.07 0.0386379 -0.000514266 0.0904143
5 0.0264113 -0.07 0.173548 0.00669581 0.141145
5 0.056003 0.05 0.167475 0.00469809 0.17088
5 0.056003 -0.05 0.294347 0.0250992 0.220846
5 0.0746589 -0.01 0.27741 0.0317284 0.207676
5 0.0746589 0.01 0.249218 0.0188129 0.198281
5 0.0727073 -0.02 0.289688 0.0335547 0.212599
5 0.0727073 0.02 0.234037 0.0124883 0.193536
5 0.0294653 0.07 0.0514138 0.000160254 0.0998006
5 0.0294653 -0.07 0.192909 0.00841171 0.157062
5 0.0472842 0.06 0.129176 0.00482023 0.151094
5 0.0472842 -0.06 0.276144 0.0191923 0.213275
5 0.0651106 -0.04 0.305697 0.0319269 0.222729
5 0.0651106 0.04 0.198335 0.00596064 0.182246
5 0.0766105 0 0.266914 0.0258473 0.204613
5 0.0707909 -0.03 0.301477 0.0352065 0.217306
5 0.0707909 0.03 0.219259 0.00659486 0.189184
5 0.0325754 0.07 0.0639182 0.00100149 0.109003
5 0.0325754 -0.07 0.21184 0.0102249 0.171657
5 0.0595998 0.05 0.176356 0.00518375 0.174988
5 0.0595998 -0.05 0.306454 0.0276151 0.22674
5 0.0507211 0.06 0.139697 0.00589748 0.157554
5 0.0507211 -0.06 0.290814 0.0215385 0.221816
5 0.0357425 0.07 0.0760975 0.00199399 0.117959
5 0.0357425 -0.07 0.230269 0.0121291 0.184962
5 0.0766105 -0.02 0.298043 0.0351411 0.216455
5 0.0766105 0.02 0.240361 0.0129698 0.19635
5 0.0785979 -0.01 0.285193 0.0331336 0.211133
5 0.0785979 0.01 0.255838 0.0197147 0.201362
5 0.0688745 -0.04 0.31575 0.0340921 0.227186
5 0.0688745 0.04 0.205383 0.0061114 0.185142
5 0 0.08 0 0 0
5 0 -0.08 0 0 0
5 0.00256965 0.08 -0.0358468 -0.000112484 0.00620476
5 0.00256965 -0.08 0.013249 8.31891e-05 0.0100202
5 0.0389677 0.07 0.0879508 0.00314782 0.12657
5 0.0389677 -0.07 0.248171 0.0141106 0.197137
5 0.00518642 0.08 -0.0434348 -0.000432161 0.0138226
5 0.00518642 -0.08 0.0267208 0.000189643 0.0188874
5 0.00785119 0.08 -0.0432046 -0.000768779 0.0231201
5 0.00785119 -0.08 0.0448052 0.00046796 0.0316499
5 0.0746589 -0.03 0.310391 0.0369713 0.221458
5 0.0746589 0.03 0.225424 0.0066705 0.191748
5 0.0805853 0 0.274014 0.0269766 0.207791
5 0.0632626 0.05 0.184466 0.00552191 0.17845
5 0.0632626 -0.05 0.318084 0.0301478 0.232071
5 0.0105648 0.08 -0.0374192 -0.00102447 0.0331133
5 0.0105648 -0.08 0.0650223 0.00100763 0.0473534
5 0.054221 0.06 0.149622 0.00691434 0.163098
5 0.054221 -0.06 0.304962 0.0239491 0.229537
5 0.0133283 0.08 -0.0281644 -0.00117054 0.0432423
5 0.0133283 -0.08 0.0859984 0.00179007 0.0649972
5 0.0161424 0.08 -0.0169222 -0.00117698 0.0532131
5 0.0161424 -0.08 0.10718 0.00281586 0.0837084
5 0.0422521 0.07 0.0994903 0.00444543 0.134711
5 0.0422521 -0.07 0.265525 0.016165 0.208384
5 0.0190081 0.08 -0.00466878 -0.00103242 0.0628613
5 0.0190081 -0.08 0.12837 0.00405219 0.102776
5 0.0219263 0.08 0.00797811 -0.000726444 0.0721413
5 0.0219263 -0.08 0.149505 0.00545951 0.121607
5 0.0727073 -0.04 0.325448 0.0361858 0.231471
5 0.0727073 0.04 0.211658 0.00615155 0.187616
5 0.0805853 -0.02 0.306226 0.0367211 0.220178
5 0.0805853 0.02 0.246265 0.0133983 0.198923
5 0.0826091 -0.01 0.292761 0.0344986 0.214422
5 0.0826091 0.01 0.262267 0.0205599 0.20425
5 0.0577851 0.06 0.158866 0.00781399 0.167784
5 0.0577851 -0.06 0.318577 0.0264193 0.236449
5 0.0455967 0.07 0.110708 0.00586428 0.142271
5 0.0455967 -0.07 0.282323 0.0183001 0.218857
5 0.0669925 -0.05 0.329247 0.032664 0.236919
5 0.0669925 0.05 0.191726 0.00569471 0.181362
5 0.0248981 0.08 0.0206604 -0.000245375 0.0811019
5 0.0248981 -0.08 0.170542 0.00699736 0.139704
5 0.0785979 -0.03 0.319181 0.0387316 0.225555
5 0.0785979 0.03 0.230968 0.00668124 0.194012
5 0.0846329 0 0.280871 0.0280478 0.210848
5 0.0279244 0.08 0.0331814 0.000421339 0.0898001
5 0.0279244 -0.08 0.191401 0.00864249 0.156709
5 0.0490026 0.07 0.121514 0.0073348 0.149124
5 0.0490026 -0.07 0.298584 0.0205254 0.228592
5 0.0310063 0.08 0.0454357 0.00127697 0.0982685
5 0.0310063 -0.08 0.211969 0.0103754 0.17243
5 0.0614146 -0.06 0.331636 0.0289305 0.242598
5 0.0614146 0.06 0.167359 0.00855375 0.171751
5 0.0766105 -0.04 0.334857 0.038223 0.235675
5 0.0766105 0.04 0.217212 0.00608457 0.189715
5 0.0707909 -0.05 0.33988 0.0351077 0.241414
5 0.0707909 0.05 0.198159 0.00572468 0.183773
5 0.0846329 -0.02 0.314133 0.038286 0.223816
5 0.0846329 0.02 0.251843 0.0137774 0.201349
5 0.0341446 0.08 0.0573673 0.00232323 0.106506
5 0.0341446 -0.08 0.232134 0.0121862 0.186844
5 0.0866939 -0.01 0.299968 0.0358109 0.217683
5 0.0866939 0.01 0.268492 0.0213222 0.207039
5 0.052471 0.07 0.131769 0.00877091 0.155182
5 0.052471 -0.07 0.3143 0.0228418 0.237501
5 0.0826091 -0.03 0.327771 0.0405212 0.229604
5 0.0826091 0.03 0.235989 0.00663736 0.196071
5 0.0373405 0.08 0.0689533 0.00356255 0.114484
5 0.0373405 -0.08 0.251796 0.0140761 0.20005
5 0.0651106 -0.06 0.344085 0.031441 0.248034
5 0.0651106 0.06 0.175045 0.00910266 0.175115
5 0.0887548 0 0.287353 0.0290302 0.213864
5 0.056003 0.07 0.141375 0.0101003 0.160401
5 0.056003 -0.07 0.329462 0.0252421 0.245538
5 0.040595 0.08 0.0801921 0.00498305 0.122178
5 0.040595 -0.08 0.270861 0.0160404 0.212201
5 0.0746589 -0.05 0.350046 0.0374585 0.245708
5 0.0746589 0.05 0.203794 0.00561616 0.185759
5 0.0805853 -0.04 0.343996 0.0402303 0.239846
5 0.0805853 0.04 0.22211 0.00592649 0.191491
5 0.00128482 0.09 -0.032664 2.63538e-05 0.00325635
5 0.00128482 -0.09 0.00798667 9.62722e-06 0.0071191
5 0.00387803 0.09 -0.0464621 -0.000227553 0.00965289
5 0.00387803 -0.09 0.0188405 0.00013483 0.0144219
5 0.00651881 0.09 -0.0510703 -0.000551089 0.0179306
5 0.00651881 -0.09 0.0358291 0.00034471 0.0262104
5 0.00920802 0.09 -0.0487092 -0.000800247 0.027052
5 0.00920802 -0.09 0.0559868 0.000919659 0.0415907
5 0.0119465 0.09 -0.0418556 -0.000947713 0.0364887
5 0.0119465 -0.09 0.0774456 0.00176993 0.0594644
5 0.0887548 -0.02 0.321643 0.0398087 0.227378
5 0.0887548 0.02 0.257112 0.0141144 0.20371
5 0.0147353 0.09 -0.0323014 -0.000953322 0.0459576
5 0.0147353 -0.09 0.0994323 0.00289491 0.0787815
5 0.0439092 0.08 0.0910923 0.00655244 0.12956
5 0.0439092 -0.08 0.289262 0.0180749 0.223437
5 0.0688745 -0.06 0.355831 0.0338946 0.252826
5 0.0688745 0.06 0.181896 0.00945058 0.177932
5 0.0908536 -0.01 0.306665 0.0370071 0.220953
5 0.0908536 0.01 0.274289 0.0219808 0.209781
5 0.0175752 0.09 -0.0211813 -0.000808898 0.0552213
5 0.0175752 -0.09 0.121623 0.00423577 0.0987022
5 0.0866939 -0.03 0.336037 0.042314 0.233556
5 0.0866939 0.03 0.240627 0.00659021 0.198035
5 0.0595998 0.07 0.150259 0.0112741 0.164868
5 0.0595998 -0.07 0.344047 0.0277215 0.252673
5 0.0204672 0.09 -0.00923465 -0.000513631 0.0640879
5 0.0204672 -0.09 0.143908 0.00571361 0.118542
5 0.0472842 0.08 0.101644 0.00821772 0.136566
5 0.0472842 -0.08 0.306999 0.0201771 0.233835
5 0.0929523 0 0.293323 0.0298973 0.216832
5 0.0234122 0.09 0.00304681 -4.92156e-05 0.0725308
5 0.0234122 -0.09 0.166231 0.00727798 0.137738
5 0.0785979 -0.05 0.359814 0.0397315 0.249979
5 0.0785979 0.05 0.208665 0.00537033 0.187341
5 0.0846329 -0.04 0.352817 0.0422156 0.243947
5 0.0846329 0.04 0.226474 0.00570101 0.193033
5 0.0264113 0.09 0.0153206 0.000595658 0.0806095
5 0.0264113 -0.09 0.188514 0.00889284 0.155888
5 0.0727073 -0.06 0.366818 0.0362453 0.257121
5 0.0727073 0.06 0.187934 0.00960559 0.180256
5 0.0632626 -0.07 0.357961 0.0302383 0.258909
5 0.0632626 0.07 0.158358 0.0122354 0.1687
5 0.0294653 0.09 0.0273558 0.00144387 0.0883776
5 0.0294653 -0.09 0.210638 0.01057 0.172744
5 0.0507211 0.08 0.111794 0.00990427 0.143101
5 0.0507211 -0.08 0.324091 0.0223409 0.243387
5 0.0929523 -0.02 0.328695 0.0412717 0.230797
5 0.0929523 0.02 0.262035 0.0144042 0.206067
5 0.0950896 -0.01 0.31285 0.0380896 0.224125
5 0.0950896 0.01 0.279492 0.022512 0.212471
5 0.0908536 -0.03 0.343906 0.0441035 0.23732
5 0.0908536 0.03 0.24504 0.00656433 0.199986
5 0.0325754 0.09 0.0390575 0.00250246 0.0958951
5 0.0325754 -0.09 0.232492 0.0122956 0.18826
5 0.0826091 -0.05 0.369221 0.0419374 0.254247
5 0.0826091 0.05 0.212821 0.00501698 0.188541
5 0.054221 0.08 0.121468 0.0115332 0.149077
5 0.054221 -0.08 0.340532 0.0245552 0.25203
5 0.0357425 0.09 0.0503986 0.00379523 0.103169
5 0.0357425 -0.09 0.253938 0.0140954 0.202501
5 0.0669925 -0.07 0.37105 0.0327149 0.264236
5 0.0669925 0.07 0.165634 0.0129587 0.171949
5 0.0972268 0 0.298788 0.0306498 0.219702
5 0.0766105 -0.06 0.377091 0.0384768 0.261122
5 0.0766105 0.06 0.193212 0.0095823 0.182142
5 0.0887548 -0.04 0.36125 0.0441756 0.247883
5 0.0887548 0.04 0.230513 0.00544193 0.194475
5 0.0389677 0.09 0.061369 0.00531346 0.11024
5 0.0389677 -0.09 0.274811 0.0159699 0.215603
5 0.0577851 -0.08 0.356294 0.0268074 0.259722
5 0.0577851 0.08 0.130605 0.0130486 0.154465
5 0.0972268 -0.02 0.335316 0.0426802 0.233988
5 0.0972268 0.02 0.266632 0.0146334 0.208439
5 0.0422521 0.09 0.0719607 0.00702587 0.117192
5 0.0422521 -0.09 0.29494 0.0179168 0.227684
5 0.0707909 -0.07 0.383151 0.0350925 0.268736
5 0.0707909 0.07 0.172068 0.0134243 0.174645
5 0.0950896 -0.03 0.351363 0.0458873 0.240791
5 0.0950896 0.03 0.249321 0.00655984 0.20203
5 0.0994033 -0.01 0.318629 0.0390751 0.22712
5 0.0994033 0.01 0.284182 0.0229229 0.215092
5 0 0.1 0 0 0
5 0 -0.1 0 0 0
5 0.00256965 0.1 -0.0432062 4.15107e-05 0.00596825
5 0.00256965 -0.1 0.0140426 0.000166807 0.0120995
5 0.0866939 -0.05 0.378241 0.0440905 0.258383
5 0.0866939 0.05 0.21646 0.00455938 0.189487
5 0.00518642 0.1 -0.054126 -7.13577e-05 0.0128994
5 0.00518642 -0.1 0.0286498 0.000453658 0.0227469
5 0.00785119 0.1 -0.0568482 -0.000157156 0.0209697
5 0.00785119 -0.1 0.0481627 0.000994885 0.037489
5 0.0805853 -0.06 0.386754 0.0405978 0.264981
5 0.0805853 0.06 0.197823 0.00938784 0.18364
5 0.0105648 0.1 -0.053606 -0.00017849 0.0295528
5 0.0105648 -0.1 0.0701103 0.00184338 0.0552423
5 0.0614146 -0.08 0.371294 0.029067 0.266443
5 0.0614146 0.08 0.139133 0.0144013 0.159287
5 0.0133283 0.1 -0.0464654 -9.36218e-05 0.0383212
5 0.0133283 -0.1 0.0930834 0.00294865 0.0748416
5 0.0455967 0.09 0.0822131 0.00887459 0.124065
5 0.0455967 -0.09 0.314263 0.0199181 0.238825
5 0.0929523 -0.04 0.369238 0.0461133 0.251543
5 0.0929523 0.04 0.234473 0.00518225 0.195972
5 0.0161424 0.1 -0.0368691 0.00013617 0.0470411
5 0.0161424 -0.1 0.116509 0.00427013 0.0952905
5 0.10158 0 0.303885 0.0312914 0.222501
5 0.0190081 0.1 -0.0257651 0.00052658 0.0555087
5 0.0190081 -0.1 0.140153 0.00572853 0.11583
5 0.0746589 -0.07 0.394199 0.0373234 0.27263
5 0.0746589 0.07 0.177717 0.0136572 0.176848
5 0.0219263 0.1 -0.0138431 0.00108718 0.0636051
5 0.0219263 -0.1 0.163866 0.00725173 0.135856
5 0.0490026 0.09 0.092146 0.0107977 0.130804
5 0.0490026 -0.09 0.33283 0.0219653 0.24907
5 0.0248981 0.1 -0.00164469 0.00182894 0.0713075
5 0.0248981 -0.1 0.187486 0.00879401 0.154923
5 0.0651106 -0.08 0.385389 0.0312879 0.27218
5 0.0651106 0.08 0.14697 0.0155506 0.163538
5 0.10158 -0.02 0.341581 0.0440366 0.23696
5 0.10158 0.02 0.270977 0.0147902 0.210867
5 0.0908536 -0.05 0.386822 0.046195 0.262273
5 0.0908536 0.05 0.219928 0.00405369 0.190392
5 0.0846329 -0.06 0.395919 0.0426244 0.268713
5 0.0846329 0.06 0.201935 0.00903493 0.184815
5 0.0279244 0.1 0.0104312 0.00275877 0.0786415
5 0.0279244 -0.1 0.210831 0.0103423 0.172759
5 0.0994033 -0.03 0.358425 0.0476695 0.243919
5 0.0994033 0.03 0.253534 0.00653882 0.204164
5 0.052471 0.09 0.101752 0.0127142 0.137296
5 0.052471 -0.09 0.350653 0.0240317 0.258386
5 0.103796 -0.01 0.324174 0.0399471 0.230004
5 0.103796 0.01 0.288556 0.0232207 0.217787
5 0.0310063 0.1 0.0221526 0.00387324 0.0856456
5 0.0310063 -0.1 0.233753 0.0119072 0.189239
5 0.0972268 -0.04 0.376728 0.0480384 0.254847
5 0.0972268 0.04 0.238537 0.00493321 0.197629
5 0.0785979 -0.07 0.404307 0.0393945 0.276175
5 0.0785979 0.07 0.182674 0.0136855 0.178622
5 0.0688745 -0.08 0.398427 0.0334253 0.27698
5 0.0688745 0.08 0.154057 0.0164772 0.167195
5 0.0341446 0.1 0.0334325 0.00516486 0.0923627
5 0.0341446 -0.1 0.256151 0.0135112 0.204366
5 0.056003 0.09 0.110981 0.0145479 0.143432
5 0.056003 -0.09 0.367718 0.0261059 0.266698
5 0.106012 0 0.308791 0.0318416 0.225373
5 0.0373405 0.1 0.044252 0.00661934 0.0988618
5 0.0373405 -0.1 0.27794 0.0151759 0.218237
5 0.0887548 -0.06 0.40465 0.044571 0.272263
5 0.0887548 0.06 0.205822 0.0085576 0.185773
5 0.0950896 -0.05 0.394863 0.0482683 0.26579
5 0.0950896 0.05 0.223605 0.00355104 0.191479
5 0.106012 -0.02 0.347569 0.0453414 0.239852
5 0.106012 0.02 0.275132 0.0148948 0.213472
5 0.040595 0.1 0.0546096 0.00820684 0.10525
5 0.040595 -0.1 0.299032 0.0169045 0.230961
5 0.0595998 -0.09 0.383954 0.0281608 0.273982
5 0.0595998 0.09 0.119807 0.0162726 0.149161
5 0.103796 -0.03 0.365098 0.0494552 0.2468
5 0.103796 0.03 0.257639 0.00647858 0.206424
5 0.0727073 -0.08 0.410317 0.0354421 0.281009
5 0.0727073 0.08 0.160392 0.0171766 0.170269
5 0.0826091 -0.07 0.413675 0.0413285 0.279526
5 0.0826091 0.07 0.187134 0.0134785 0.180056
5 0.108269 -0.01 0.329638 0.0407414 0.232996
5 0.108269 0.01 0.2928 0.0234574 0.220704
5 0.10158 -0.04 0.383697 0.0499607 0.2578
5 0.10158 0.04 0.24272 0.00469122 0.199482
5 0.0439092 0.1 0.0645269 0.00989193 0.111626
5 0.0439092 -0.1 0.319353 0.0186852 0.242623
5 0.00128482 0.11 -0.0382071 0.000171248 0.00252859
5 0.00128482 -0.11 0.00868527 0.000115308 0.008725
5 0.0632626 -0.09 0.399216 0.030148 0.280211
5 0.0632626 0.09 0.128111 0.0178233 0.154418
5 0.00387803 0.11 -0.0554938 0.000195977 0.00843612
5 0.00387803 -0.11 0.0206597 0.000407494 0.0181334
5 0.00651881 0.11 -0.0634787 0.000297216 0.0155793
5 0.00651881 -0.11 0.0392726 0.000927656 0.0322241
5 0.00920802 0.11 -0.0641345 0.000425485 0.0233181
5 0.00920802 -0.11 0.0615656 0.00178763 0.0499334
5 0.110526 0 0.313653 0.0323385 0.228475
5 0.0472842 0.1 0.0740468 0.0116417 0.118016
5 0.0472842 -0.1 0.338888 0.020499 0.253262
5 0.0929523 -0.06 0.412923 0.0464593 0.275574
5 0.0929523 0.06 0.209798 0.00801124 0.186673
5 0.0119465 0.11 -0.0597238 0.00060852 0.031354
5 0.0119465 -0.11 0.0854471 0.00289648 0.069984
5 0.0766105 -0.08 0.421106 0.037315 0.284506
5 0.0766105 0.08 0.166029 0.0176585 0.172797
5 0.0147353 0.11 -0.0519794 0.000918055 0.0394862
5 0.0147353 -0.11 0.110013 0.00423351 0.0911399
5 0.0994033 -0.05 0.402264 0.0503295 0.26889
5 0.0994033 0.05 0.22769 0.00308304 0.192843
5 0.0175752 0.11 -0.0420125 0.0013889 0.0475008
5 0.0175752 -0.11 0.134972 0.00571659 0.112542
5 0.0866939 -0.07 0.422541 0.0431417 0.282699
5 0.0866939 0.07 0.191328 0.0130847 0.181175
5 0.0204672 0.11 -0.0306299 0.00204004 0.0552266
5 0.0204672 -0.11 0.160114 0.00724841 0.133536
5 0.0507211 0.1 0.0831956 0.0134191 0.124377
5 0.0507211 -0.1 0.35766 0.0223242 0.262874
5 0.0669925 -0.09 0.413333 0.032051 0.285367
5 0.0669925 0.09 0.135778 0.0191853 0.159085
5 0.110526 -0.02 0.35333 0.0465901 0.242792
5 0.110526 0.02 0.279183 0.0149988 0.216395
5 0.108269 -0.03 0.371368 0.0512222 0.24961
5 0.108269 0.03 0.261535 0.00642243 0.208973
5 0.0234122 0.11 -0.0185524 0.00287166 0.0625765
5 0.0234122 -0.11 0.185217 0.00876723 0.153611
5 0.0264113 0.11 -0.00639126 0.00389782 0.0695147
5 0.0264113 -0.11 0.209988 0.0102383 0.172458
5 0.112825 -0.01 0.335087 0.0414869 0.236202
5 0.112825 0.01 0.297089 0.0236684 0.223997
5 0.106012 -0.04 0.390134 0.051871 0.260467
5 0.106012 0.04 0.246846 0.00447525 0.201566
5 0.0805853 -0.08 0.430973 0.0390399 0.287674
5 0.0805853 0.08 0.17111 0.0179253 0.174806
5 0.054221 0.1 0.091973 0.0151845 0.130633
5 0.054221 -0.1 0.375667 0.0241379 0.271442
5 0.0294653 0.11 0.00544197 0.00509793 0.0760657
5 0.0294653 -0.11 0.23419 0.0116685 0.189949
5 0.0972268 -0.06 0.420656 0.0483139 0.278615
5 0.0972268 0.06 0.214055 0.00746215 0.187674
5 0.0707909 -0.09 0.426178 0.0338436 0.289584
5 0.0707909 0.09 0.142751 0.0203409 0.163102
5 0.0908536 -0.07 0.430999 0.0448575 0.2857
5 0.0908536 0.07 0.195575 0.0125324 0.182038
5 0.0325754 0.11 0.0167575 0.00644898 0.0822456
5 0.0325754 -0.11 0.257696 0.0130951 0.206005
5 0.115123 0 0.318551 0.0327938 0.231812
5 0.103796 -0.05 0.409004 0.0523895 0.27159
5 0.103796 0.05 0.232018 0.00266432 0.194498
5 0.0577851 -0.1 0.392844 0.0259196 0.278968
5 0.0577851 0.1 0.100364 0.0169064 0.136699
5 0.0357425 0.11 0.0275192 0.00791308 0.0881427
5 0.0357425 -0.11 0.280481 0.0145592 0.220701
5 0.0846329 -0.08 0.440161 0.0406306 0.290634
5 0.0846329 0.08 0.175846 0.0179825 0.176336
5 0.0389677 0.11 0.0377235 0.00945593 0.0938975
5 0.0389677 -0.11 0.302536 0.0160794 0.234144
5 0.112825 -0.03 0.377228 0.0529106 0.252361
5 0.112825 0.03 0.26531 0.00644705 0.211908
5 0.115123 -0.02 0.358892 0.0477446 0.245764
5 0.115123 0.02 0.28327 0.0151563 0.219642
5 0.0746589 -0.09 0.437742 0.0355095 0.293089
5 0.0746589 0.09 0.149033 0.0212841 0.166483
5 0.0614146 -0.1 0.409062 0.0276415 0.285473