# UMean  POINT_DATA 90431
# x  y  z  UMean_x  UMean_y  UMean_z
4 0 0 0 0 0
4 0.00256965 0 -0.0605514 0.000770354 -0.0292012
4 0.00518642 0 -0.0898616 0.00186312 -0.0394756
4 0.00785119 0 -0.117103 0.00346277 -0.0480312
4 0.00128135 -0.00996393 -0.0439571 0.000386965 -0.0211232
4 0.00128135 0.00996393 -0.0471733 0.000378319 -0.0259974
4 0.0105648 0 -0.140959 0.00541001 -0.0553298
4 0.00386754 -0.00996393 -0.0724546 0.00119318 -0.0310156
4 0.00386754 0.00996393 -0.0786325 0.00113428 -0.0386898
4 0.00650117 -0.00996393 -0.0995339 0.00267509 -0.0389304
4 0.00650117 0.00996393 -0.108902 0.00247019 -0.0493086
4 0.0133283 0 -0.160835 0.00763614 -0.0616353
4 0.00918311 -0.00996393 -0.123647 0.0045732 -0.045536
4 0.00918311 0.00996393 -0.136453 0.00416269 -0.0583851
4 0.0119142 -0.00996393 -0.143747 0.00680718 -0.051185
4 0.0119142 0.00996393 -0.160126 0.00613411 -0.0662259
4 0.0161424 0 -0.176939 0.0100675 -0.067099
4 0.0146954 -0.00996393 -0.159814 0.00931791 -0.0561098
4 0.0146954 0.00996393 -0.179767 0.00832675 -0.0730069
4 0.0190081 0 -0.18987 0.0126195 -0.0717959
4 0 -0.02 0 0 0
4 0 0.02 0 0 0
4 0.0175277 -0.00996393 -0.172437 0.0120107 -0.0604506
4 0.0175277 0.00996393 -0.195809 0.0106598 -0.0787909
4 0.00256965 -0.02 -0.0546307 0.000865371 -0.022376
4 0.00256965 0.02 -0.0664985 0.000708308 -0.0352157
4 0.00518642 -0.02 -0.0802134 0.0021386 -0.0294745
4 0.00518642 0.02 -0.0990874 0.00168419 -0.0479624
4 0.00785119 -0.02 -0.103646 0.0039767 -0.0351269
4 0.00785119 0.02 -0.12968 0.00308024 -0.0587006
4 0.0219263 0 -0.200273 0.015218 -0.0757492
4 0.0105648 -0.02 -0.123686 0.00619529 -0.039912
4 0.0105648 0.02 -0.156841 0.00473847 -0.0678096
4 0.0204118 -0.00996393 -0.1824 0.0147929 -0.0643033
4 0.0204118 0.00996393 -0.208851 0.013066 -0.0835752
4 0.0133283 -0.02 -0.139953 0.00869934 -0.0441384
4 0.0133283 0.02 -0.179909 0.00658852 -0.0755116
4 0.0248981 0 -0.208669 0.0177974 -0.0789541
4 0.0233489 -0.00996393 -0.190411 0.0175881 -0.0676955
4 0.0233489 0.00996393 -0.219394 0.0154856 -0.0873254
4 0.0161424 -0.02 -0.152871 0.0113922 -0.0480019
4 0.0161424 0.02 -0.199024 0.00855871 -0.0819589
4 0.0190081 -0.02 -0.163159 0.0141672 -0.0516398
4 0.0190081 0.02 -0.214674 0.0105711 -0.0872301
4 0.0279244 0 -0.215432 0.0202905 -0.0814099
4 0.0263398 -0.00996393 -0.196978 0.020324 -0.0706322
4 0.0263398 0.00996393 -0.22781 0.0178642 -0.0900183
4 0.0219263 -0.02 -0.171518 0.0169306 -0.0551093
4 0.0219263 0.02 -0.227374 0.0125606 -0.0913508
4 0.00128135 -0.0298918 -0.0390464 0.000421642 -0.0156404
4 0.00128135 0.0298918 -0.0526484 0.000336706 -0.0305437
4 0.00386754 -0.0298918 -0.0631296 0.00147064 -0.0218117
4 0.00386754 0.0298918 -0.0875523 0.00100614 -0.0456071
4 0.00650117 -0.0298918 -0.0858812 0.00323714 -0.0262762
4 0.00650117 0.0298918 -0.121344 0.00217213 -0.0582082
4 0.0310063 0 -0.220806 0.0226318 -0.0831276
4 0.0293856 -0.00996393 -0.202435 0.022921 -0.0730791
4 0.0293856 0.00996393 -0.234374 0.0201386 -0.0917028
4 0.00918311 -0.0298918 -0.105713 0.00545716 -0.0299069
4 0.00918311 0.0298918 -0.152156 0.00358736 -0.0688349
4 0.0248981 -0.02 -0.178485 0.0196087 -0.0583793
4 0.0248981 0.02 -0.237545 0.0144741 -0.0943389
4 0.0119142 -0.0298918 -0.121826 0.0079933 -0.0331358
4 0.0119142 0.0298918 -0.178785 0.00516106 -0.0776922
4 0.0146954 -0.0298918 -0.134574 0.0107439 -0.0361892
4 0.0146954 0.0298918 -0.201107 0.00683683 -0.0849933
4 0.0324873 -0.00996393 -0.206956 0.0253171 -0.0749812
4 0.0324873 0.00996393 -0.239279 0.0222491 -0.092467
4 0.0341446 0 -0.224954 0.0247657 -0.0841365
4 0.0279244 -0.02 -0.184401 0.0221412 -0.0613749
4 0.0279244 0.02 -0.24551 0.0162799 -0.0962582
4 0.0175277 -0.0298918 -0.144738 0.0135799 -0.0392587
4 0.0175277 0.0298918 -0.219533 0.0085244 -0.0909018
4 0.0204118 -0.0298918 -0.153057 0.0163917 -0.0424693
4 0.0204118 0.0298918 -0.234582 0.0101523 -0.0955034
4 0.0310063 -0.02 -0.189442 0.0244823 -0.0640209
4 0.0310063 0.02 -0.251521 0.0179546 -0.0972293
4 0.0356458 -0.00996393 -0.210623 0.0274565 -0.0763285
4 0.0356458 0.00996393 -0.242715 0.0241503 -0.0924108
4 0.0373405 0 -0.228017 0.0266506 -0.084515
4 0.0233489 -0.0298918 -0.160115 0.019084 -0.0458053
4 0.0233489 0.0298918 -0.2467 0.0116591 -0.0988436
4 0.0341446 -0.02 -0.19367 0.0266032 -0.0662671
4 0.0341446 0.02 -0.255813 0.0194904 -0.0974057
4 0.0263398 -0.0298918 -0.166268 0.0216035 -0.0491276
4 0.0263398 0.0298918 -0.256253 0.0130077 -0.100994
4 0 0.04 0 0 0
4 0 -0.04 0 0 0
4 0.00256965 0.04 -0.0748319 0.000515793 -0.0395387
4 0.00256965 -0.04 -0.0464709 0.0010128 -0.0140062
4 0.0388623 -0.00996393 -0.213499 0.0293054 -0.0771491
4 0.0388623 0.00996393 -0.244919 0.0258101 -0.0917337
4 0.00518642 0.04 -0.110942 0.00121959 -0.0540008
4 0.00518642 -0.04 -0.0673476 0.00247211 -0.0173881
4 0.040595 0 -0.230156 0.0282654 -0.0844161
4 0.00785119 -0.04 -0.0862961 0.00451753 -0.0199324
4 0.00785119 0.04 -0.1447 0.00219282 -0.0660707
4 0.0105648 -0.04 -0.10227 0.00691164 -0.0221836
4 0.0105648 0.04 -0.174521 0.00330465 -0.0760916
4 0.0293856 -0.0298918 -0.171682 0.0239122 -0.0523082
4 0.0293856 0.0298918 -0.263526 0.014226 -0.102106
4 0.0133283 -0.04 -0.115137 0.00952606 -0.0244899
4 0.0133283 0.04 -0.199791 0.00449534 -0.0842621
4 0.0373405 -0.02 -0.197099 0.0284815 -0.0680925
4 0.0373405 0.02 -0.25866 0.0208828 -0.0969752
4 0.0161424 -0.04 -0.125454 0.0122464 -0.0270823
4 0.0161424 0.04 -0.220723 0.00570893 -0.0907489
4 0.0421378 -0.00996393 -0.215665 0.0308399 -0.0775751
4 0.0421378 0.00996393 -0.246164 0.0272338 -0.0906906
4 0.0439092 0 -0.231572 0.0296065 -0.0840477
4 0.0324873 -0.0298918 -0.176389 0.0260037 -0.0552672
4 0.0324873 0.0298918 -0.268766 0.0153157 -0.102373
4 0.0190081 0.04 -0.237812 0.0068826 -0.0957071
4 0.0190081 -0.04 -0.133919 0.0149593 -0.03007
4 0.040595 -0.02 -0.199767 0.0301084 -0.0695025
4 0.040595 0.02 -0.26037 0.0221348 -0.0961612
4 0.0219263 0.04 -0.251558 0.00796598 -0.0993007
4 0.0219263 -0.04 -0.141093 0.0175783 -0.0334152
4 0.0356458 -0.0298918 -0.180344 0.0278845 -0.0579542
4 0.0356458 0.0298918 -0.272282 0.0163488 -0.102032
4 0.0454733 0.00996393 -0.246774 0.0284274 -0.0895915
4 0.0454733 -0.00996393 -0.217245 0.0320582 -0.07774
4 0.0248981 0.04 -0.262414 0.00893552 -0.101724
4 0.0248981 -0.04 -0.147347 0.0200498 -0.0369622
4 0.0472842 0 -0.2325 0.0306905 -0.0836294
4 0.0439092 -0.02 -0.201764 0.0314846 -0.0705134
4 0.0439092 0.02 -0.261258 0.023264 -0.0952096
4 0.0279244 0.04 -0.270782 0.00980872 -0.103206
4 0.0279244 -0.04 -0.152862 0.0223438 -0.0405091
4 0.0388623 -0.0298918 -0.183513 0.0295477 -0.0603228
4 0.0388623 0.0298918 -0.274434 0.0173143 -0.101305
4 0.00128135 0.0498197 -0.0602207 0.000177558 -0.0327759
4 0.00128135 -0.0498197 -0.0324439 0.000521529 -0.00844193
4 0.0488701 -0.00996393 -0.218426 0.0329981 -0.0777747
4 0.0488701 0.00996393 -0.247054 0.0294153 -0.0887433
4 0.00386754 0.0498197 -0.0989316 0.000570413 -0.0492623
4 0.00386754 -0.0498197 -0.0513883 0.00165254 -0.0102424
4 0.00650117 -0.0498197 -0.0692285 0.00356622 -0.0113777
4 0.00650117 0.0498197 -0.136017 0.00119253 -0.06294
4 0.0310063 0.04 -0.277016 0.0106165 -0.103978
4 0.0310063 -0.04 -0.157686 0.0244519 -0.0438673
4 0.00918311 -0.0498197 -0.0846617 0.00587783 -0.0123276
4 0.00918311 0.0498197 -0.169383 0.00192203 -0.0742668
4 0.0507211 0 -0.233163 0.0315608 -0.0833449
4 0.0119142 0.0498197 -0.197855 0.0026877 -0.0834885
4 0.0119142 -0.0498197 -0.0971818 0.00842114 -0.0134906
4 0.0472842 -0.02 -0.203231 0.0326294 -0.0711396
4 0.0472842 0.02 -0.261628 0.0242815 -0.0943664
4 0.0421378 -0.0298918 -0.185934 0.0310213 -0.0622853
4 0.0421378 0.0298918 -0.275586 0.0182645 -0.100417
4 0.0146954 -0.0498197 -0.107211 0.0110872 -0.0152029
4 0.0146954 0.0498197 -0.221491 0.00346675 -0.0907494
4 0.0341446 0.04 -0.281454 0.0114013 -0.104246
4 0.0341446 -0.04 -0.161812 0.0263809 -0.0468989
4 0.0175277 -0.0498197 -0.115454 0.0137575 -0.0176411
4 0.0175277 0.0498197 -0.240805 0.0042042 -0.0962018
4 0.0523291 -0.00996393 -0.219392 0.0337374 -0.0777911
4 0.0523291 0.00996393 -0.247215 0.0302334 -0.0883395
4 0.0204118 0.0498197 -0.256332 0.00486519 -0.100059
4 0.0204118 -0.0498197 -0.122484 0.0163341 -0.0207614
4 0.054221 0 -0.233697 0.032278 -0.0833163
4 0.0454733 -0.0298918 -0.187719 0.0323051 -0.0637293
4 0.0454733 0.0298918 -0.276047 0.0192063 -0.0995645
4 0.0507211 -0.02 -0.204333 0.0335899 -0.0714237
4 0.0507211 0.02 -0.261731 0.0252066 -0.0938365
4 0.0373405 0.04 -0.284429 0.0121943 -0.104197
4 0.0373405 -0.04 -0.165219 0.0281405 -0.0495338
4 0.0233489 0.0498197 -0.268582 0.00541543 -0.102624
4 0.0233489 -0.0498197 -0.128672 0.0187711 -0.0243574
4 0.0263398 0.0498197 -0.27804 0.00589219 -0.104245
4 0.0263398 -0.0498197 -0.134192 0.0210447 -0.0281739
4 0.0558515 -0.00996393 -0.220209 0.0343627 -0.077919
4 0.0558515 0.00996393 -0.247342 0.0309236 -0.0884361
4 0.040595 0.04 -0.28625 0.0130181 -0.103994
4 0.040595 -0.04 -0.167917 0.02975 -0.0517391
4 0.0488701 0.0298918 -0.276095 0.0201488 -0.0989221
4 0.0488701 -0.0298918 -0.189005 0.0334407 -0.0645558
4 0.0577851 0 -0.234138 0.0329063 -0.0836056
4 0.054221 -0.02 -0.205196 0.0344235 -0.0714993
4 0.054221 0.02 -0.261725 0.0260636 -0.0937489
4 0.0293856 0.0498197 -0.285176 0.00633795 -0.105257
4 0.0293856 -0.0498197 -0.139077 0.0231472 -0.0319307
4 0.0439092 0.04 -0.287201 0.0138952 -0.10379
4 0.0439092 -0.04 -0.169969 0.0312248 -0.0534692
4 0.0324873 0.0498197 -0.290411 0.00680532 -0.105904
4 0.0324873 -0.0498197 -0.143298 0.0250951 -0.0353661
4 0 0.06 0 0 0
4 0 -0.06 0 0 0
4 0.00256965 0.06 -0.0837963 0.000337309 -0.0408286
4 0.00256965 -0.06 -0.0374981 0.00108857 -0.00433813
4 0.00518642 0.06 -0.123208 0.000779385 -0.0559379
4 0.00518642 -0.06 -0.0536239 0.00255981 -0.00400607
4 0.0523291 -0.0298918 -0.189932 0.0344613 -0.0647851
4 0.0523291 0.0298918 -0.275955 0.0211001 -0.0986388
4 0.0594386 -0.00996393 -0.220862 0.0349481 -0.0782422
4 0.0594386 0.00996393 -0.247447 0.0315407 -0.0890132
4 0.00785119 0.06 -0.159646 0.00135461 -0.0685194
4 0.00785119 -0.06 -0.0681452 0.00460003 -0.00364491
4 0.0105648 0.06 -0.191481 0.00196854 -0.0788831
4 0.0105648 -0.06 -0.0802661 0.00691588 -0.00371843
4 0.0577851 -0.02 -0.205866 0.0351919 -0.0715743
4 0.0577851 0.02 -0.261654 0.0268789 -0.094157
4 0.0356458 0.0498197 -0.294116 0.00733953 -0.106341
4 0.0356458 -0.0498197 -0.146855 0.0268982 -0.0383264
4 0.0614146 0 -0.234467 0.0335 -0.0842165
4 0.0133283 0.06 -0.218122 0.00258126 -0.0872053
4 0.0133283 -0.06 -0.0899268 0.00938171 -0.00454908
4 0.0472842 0.04 -0.287545 0.0148337 -0.103721
4 0.0472842 -0.04 -0.171471 0.0325783 -0.0546693
4 0.0161424 0.06 -0.239865 0.00316379 -0.0936348
4 0.0161424 -0.06 -0.0976118 0.0118993 -0.00627821
4 0.0190081 0.06 -0.257344 0.00368969 -0.0983855
4 0.0190081 -0.06 -0.103919 0.0143802 -0.0088726
4 0.0388623 0.0498197 -0.296576 0.00796285 -0.106698
4 0.0388623 -0.0498197 -0.149746 0.0285867 -0.0407892
4 0.0558515 -0.0298918 -0.190622 0.0353998 -0.064688
4 0.0558515 0.0298918 -0.27573 0.0220713 -0.0988351
4 0.0630915 -0.00996393 -0.221324 0.0355459 -0.0787986
4 0.0630915 0.00996393 -0.247486 0.0321203 -0.0899817
4 0.0219263 0.06 -0.27122 0.00415293 -0.101772
4 0.0219263 -0.06 -0.109327 0.0167708 -0.0121586
4 0.0614146 -0.02 -0.206352 0.0359413 -0.0718176
4 0.0614146 0.02 -0.261497 0.0276766 -0.0950258
4 0.0507211 0.04 -0.28752 0.0158428 -0.103905
4 0.0507211 -0.04 -0.172535 0.0338304 -0.0553336
4 0.0248981 0.06 -0.282076 0.00457429 -0.104169
4 0.0248981 -0.06 -0.114136 0.0190455 -0.0158602
4 0.0651106 0 -0.234659 0.0340978 -0.0851119
4 0.0421378 0.0498197 -0.298028 0.00870361 -0.107071
4 0.0421378 -0.0498197 -0.152007 0.0301888 -0.0427843
4 0.0279244 0.06 -0.290404 0.00499174 -0.105931
4 0.0279244 -0.06 -0.118477 0.0211896 -0.0196657
4 0.0594386 -0.0298918 -0.191082 0.0363117 -0.0646128
4 0.0594386 0.0298918 -0.275391 0.0230603 -0.0995676
4 0.054221 0.04 -0.287296 0.016926 -0.104425
4 0.054221 -0.04 -0.173265 0.0349972 -0.0555833
4 0.0454733 0.0498197 -0.298697 0.00956691 -0.107553
4 0.0454733 -0.0498197 -0.153698 0.0317119 -0.0442982
4 0.0310063 0.06 -0.296649 0.00544387 -0.107317
4 0.0310063 -0.06 -0.122362 0.023198 -0.0232872
4 0.0668113 -0.00996393 -0.221613 0.0361805 -0.0795858
4 0.0668113 0.00996393 -0.247417 0.032702 -0.0912424
4 0.0651106 -0.02 -0.206694 0.0366942 -0.0723188
4 0.0651106 0.02 -0.261223 0.0284748 -0.0962547
4 0.0688745 0 -0.234743 0.0347208 -0.0862495
4 0.0341446 0.06 -0.301215 0.0059604 -0.108483
4 0.0341446 -0.06 -0.125754 0.0250692 -0.0265062
4 0.00128135 0.0697475 -0.0669985 0.000156295 -0.0324808
4 0.00128135 -0.0697475 -0.0259579 0.000580212 -0.000475155
4 0.0488701 0.0498197 -0.298829 0.0105645 -0.108233
4 0.0488701 -0.0498197 -0.1549 0.0331631 -0.045326
4 0.0630915 -0.0298918 -0.191388 0.0372017 -0.0647694
4 0.0630915 0.0298918 -0.274915 0.0240734 -0.100744
4 0.00386754 0.0697475 -0.109086 0.000458383 -0.048964
4 0.00386754 -0.0697475 -0.0403733 0.00161673 0.00168136
4 0.00650117 0.0697475 -0.148889 0.000931415 -0.0627661
4 0.00650117 -0.0697475 -0.0537963 0.00344611 0.00376757
4 0.0577851 0.04 -0.28695 0.0180785 -0.10533
4 0.0577851 -0.04 -0.173728 0.0360969 -0.0556582
4 0.00918311 0.0697475 -0.184379 0.00143396 -0.0742477
4 0.00918311 -0.0697475 -0.0652482 0.00558847 0.00522551
4 0.0373405 0.06 -0.304435 0.00656082 -0.109529
4 0.0373405 -0.06 -0.128624 0.0268067 -0.0292147
4 0.0119142 0.0697475 -0.214348 0.00191969 -0.0836148
4 0.0119142 -0.0697475 -0.0743218 0.00789961 0.0056397
4 0.0146954 0.0697475 -0.238782 0.00236598 -0.090993
4 0.0146954 -0.0697475 -0.0812824 0.0102949 0.00486712
4 0.0705994 -0.00996393 -0.22179 0.0368405 -0.0805922
4 0.0705994 0.00996393 -0.247324 0.0333162 -0.0927322
4 0.0688745 -0.02 -0.206957 0.0374561 -0.0731095
4 0.0688745 0.02 -0.260871 0.0292925 -0.0977322
4 0.0175277 0.0697475 -0.258323 0.00275525 -0.0965606
4 0.0175277 -0.0697475 -0.0867019 0.0126907 0.00298451
4 0.0523291 0.0498197 -0.298634 0.0117044 -0.109162
4 0.0523291 -0.0498197 -0.155695 0.0345409 -0.0459162
4 0.040595 0.06 -0.306571 0.00726513 -0.11053
4 0.040595 -0.06 -0.130961 0.0284294 -0.0313987
4 0.0204118 0.0697475 -0.273813 0.00308779 -0.100629
4 0.0204118 -0.0697475 -0.0911428 0.0150288 0.000164222
4 0.0727073 0 -0.234831 0.0353851 -0.0875991
4 0.0668113 -0.0298918 -0.191652 0.0380784 -0.0652721
4 0.0668113 0.0298918 -0.274288 0.0250991 -0.102236
4 0.0614146 0.04 -0.286507 0.0192843 -0.106587
4 0.0614146 -0.04 -0.173983 0.0371406 -0.0558015
4 0.0233489 0.0697475 -0.286014 0.00340693 -0.103629
4 0.0233489 -0.0697475 -0.0950262 0.0172912 -0.00333089
4 0.0439092 0.06 -0.307835 0.0080851 -0.111554
4 0.0439092 -0.06 -0.132782 0.0299549 -0.0330695
4 0.0263398 0.0697475 -0.295492 0.00374815 -0.105978
4 0.0263398 -0.0697475 -0.0985923 0.0194579 -0.00712437
4 0.0558515 0.0498197 -0.298256 0.0129734 -0.110362
4 0.0558515 -0.0498197 -0.156159 0.0358458 -0.0462038
4 0.074457 -0.00996393 -0.221995 0.0375425 -0.0818184
4 0.074457 0.00996393 -0.247388 0.0339907 -0.094403
4 0.0727073 -0.02 -0.207215 0.0382283 -0.0742001
4 0.0727073 0.02 -0.260598 0.0301472 -0.0993421
4 0.0293856 0.0697475 -0.302691 0.00414876 -0.107983
4 0.0293856 -0.0697475 -0.101918 0.0215191 -0.0108834
4 0.0472842 0.06 -0.308417 0.00902223 -0.112683
4 0.0472842 -0.06 -0.134124 0.0313954 -0.0342389
4 0.0651106 0.04 -0.285998 0.02052 -0.10808
4 0.0651106 -0.04 -0.174136 0.0381361 -0.0561996
4 0.0766105 0 -0.235047 0.0361008 -0.0891312
4 0.0705994 -0.0298918 -0.19195 0.0389399 -0.066142
4 0.0705994 0.0298918 -0.27365 0.0261535 -0.103886
4 0.0324873 0.0697475 -0.308057 0.00463173 -0.109797
4 0.0324873 -0.0697475 -0.104964 0.0234538 -0.0143342
4 0.0594386 0.0498197 -0.297775 0.0143556 -0.111821
4 0.0594386 -0.0498197 -0.156341 0.0370617 -0.046389
4 0.0356458 0.0697475 -0.311965 0.00519753 -0.111495
4 0.0356458 -0.0697475 -0.107647 0.025252 -0.0172965
4 0.0507211 0.06 -0.308505 0.0100778 -0.11398
4 0.0507211 -0.06 -0.135029 0.032759 -0.0349603
4 0.0783853 -0.00996393 -0.222291 0.0382632 -0.0833109
4 0.0783853 0.00996393 -0.247716 0.0347448 -0.0961401
4 0.0766105 -0.02 -0.207519 0.0390123 -0.0756133
4 0.0766105 0.02 -0.260583 0.0310502 -0.100962
4 0.0688745 -0.04 -0.174269 0.0390922 -0.0569617
4 0.0688745 0.04 -0.285493 0.0217648 -0.109652
4 0.0388623 0.0697475 -0.314716 0.00585905 -0.11312
4 0.0388623 -0.0697475 -0.109926 0.0268993 -0.0197024
4 0 0.08 0 0 0
4 0 -0.08 0 0 0
4 0.00256965 0.08 -0.0912467 0.000371174 -0.0410111
4 0.00256965 -0.08 -0.0294977 0.00104058 0.00502969
4 0.00518642 0.08 -0.133256 0.000857109 -0.0562217
4 0.00518642 -0.08 -0.0414077 0.00237298 0.00872283
4 0.074457 -0.0298918 -0.192302 0.0397871 -0.0674044
4 0.074457 0.0298918 -0.273242 0.0272306 -0.105499
4 0.00785119 0.08 -0.171727 0.00148683 -0.0689357
4 0.00785119 -0.08 -0.0519018 0.00419078 0.0117447
4 0.0630915 0.0498197 -0.297262 0.015798 -0.113457
4 0.0630915 -0.0498197 -0.156362 0.0381906 -0.0466879
4 0.0805853 0 -0.235413 0.0368631 -0.0907856
4 0.0105648 0.08 -0.20516 0.00215936 -0.0794332
4 0.0105648 -0.08 -0.0603797 0.00622194 0.0136534
4 0.054221 0.06 -0.308287 0.0112459 -0.115468
4 0.054221 -0.06 -0.135564 0.0340431 -0.0353607
4 0.0133283 0.08 -0.23301 0.00283203 -0.0878533
4 0.0133283 -0.08 -0.0667522 0.00837297 0.0142756
4 0.0421378 0.0697475 -0.316544 0.0066345 -0.114708
4 0.0421378 -0.0697475 -0.11177 0.0284306 -0.0215585
4 0.0161424 0.08 -0.255578 0.00347468 -0.0943691
4 0.0161424 -0.08 -0.0714109 0.0105875 0.0136304
4 0.0190081 0.08 -0.273565 0.00407058 -0.0992834
4 0.0190081 -0.08 -0.0748953 0.0128167 0.0118595
4 0.0219263 0.08 -0.287773 0.00463515 -0.103011
4 0.0219263 -0.08 -0.0776728 0.0150309 0.0092052
4 0.0727073 -0.04 -0.174416 0.0400226 -0.0581122
4 0.0727073 0.04 -0.285113 0.0230017 -0.111149
4 0.0823856 -0.00996393 -0.222646 0.039006 -0.0850254
4 0.0823856 0.00996393 -0.248249 0.0355623 -0.0978145
4 0.0805853 -0.02 -0.207865 0.0398093 -0.0773294
4 0.0805853 0.02 -0.260869 0.0319968 -0.102526
4 0.0454733 0.0697475 -0.317603 0.00752109 -0.11631
4 0.0454733 -0.0697475 -0.11319 0.0298501 -0.0228843
4 0.0577851 0.06 -0.30792 0.0125099 -0.117118
4 0.0577851 -0.06 -0.135806 0.0352392 -0.0356329
4 0.0668113 -0.0498197 -0.156346 0.0392487 -0.0473115
4 0.0668113 0.0498197 -0.29681 0.0172638 -0.115096
4 0.0248981 0.08 -0.298914 0.00520437 -0.105977
4 0.0248981 -0.08 -0.0800831 0.0172065 0.00597714
4 0.0783853 -0.0298918 -0.192682 0.0406312 -0.0690773
4 0.0783853 0.0298918 -0.273251 0.0283345 -0.106946
4 0.0846329 0 -0.235901 0.0376645 -0.0924724
4 0.0279244 0.08 -0.307537 0.00580879 -0.108516
4 0.0279244 -0.08 -0.0823177 0.0193126 0.00250462
4 0.0488701 0.0697475 -0.318025 0.00851213 -0.118012
4 0.0488701 -0.0697475 -0.114181 0.0311903 -0.0237235
4 0.0310063 0.08 -0.314084 0.00646899 -0.110831
4 0.0310063 -0.08 -0.0844285 0.021313 -0.000913341
4 0.0614146 0.06 -0.307524 0.0138342 -0.118828
4 0.0614146 -0.06 -0.135839 0.0363368 -0.0360004
4 0.0705994 -0.0498197 -0.156325 0.0402488 -0.0483562
4 0.0705994 0.0498197 -0.296491 0.0187001 -0.116572
4 0.0766105 -0.04 -0.174603 0.0409588 -0.0596484
4 0.0766105 0.04 -0.284987 0.0242153 -0.112477
4 0.0846329 -0.02 -0.208254 0.0406201 -0.0792312
4 0.0846329 0.02 -0.261387 0.0329776 -0.104045
4 0.0341446 0.08 -0.318944 0.00718903 -0.113026
4 0.0341446 -0.08 -0.0863767 0.0231732 -0.00404163
4 0.0864594 -0.00996393 -0.223058 0.0397508 -0.0868597
4 0.0864594 0.00996393 -0.248948 0.0364482 -0.0993401
4 0.0523291 0.0697475 -0.317984 0.00960006 -0.119841
4 0.0523291 -0.0697475 -0.114765 0.0324469 -0.0241978
4 0.0823856 -0.0298918 -0.193067 0.041487 -0.0710654
4 0.0823856 0.0298918 -0.273585 0.0294416 -0.108334
4 0.0373405 0.08 -0.322464 0.00796815 -0.115145
4 0.0373405 -0.08 -0.0880934 0.0248718 -0.00672168
4 0.0651106 0.06 -0.307185 0.0151744 -0.120447
4 0.0651106 -0.06 -0.135745 0.0373403 -0.0366687
4 0.0887548 0 -0.236489 0.0384949 -0.0941125
4 0.0558515 0.0697475 -0.317693 0.0107745 -0.121791
4 0.0558515 -0.0697475 -0.115022 0.0336154 -0.0244968
4 0.074457 -0.0498197 -0.156312 0.0412333 -0.0497762
4 0.074457 0.0498197 -0.296349 0.0200804 -0.117784
4 0.00128135 0.0896754 -0.072214 0.000203753 -0.0330488
4 0.00128135 -0.0896754 -0.0206601 0.000518433 0.00660081
4 0.040595 0.08 -0.324958 0.00881364 -0.117196
4 0.040595 -0.08 -0.089516 0.0264122 -0.0088753
4 0.00386754 0.0896754 -0.116788 0.000654268 -0.0497075
4 0.00386754 -0.0896754 -0.0311469 0.00146397 0.0122107
4 0.00650117 0.0896754 -0.158425 0.00136379 -0.0636308
4 0.00650117 -0.0896754 -0.0405687 0.00300642 0.0171388
4 0.0805853 -0.04 -0.174855 0.0419281 -0.0615462
4 0.0805853 0.04 -0.285155 0.0253889 -0.113667
4 0.00918311 -0.0896754 -0.0483051 0.00479753 0.0207936
4 0.00918311 0.0896754 -0.195375 0.00218766 -0.0752553
4 0.0119142 0.0896754 -0.226648 0.0030592 -0.0847149
4 0.0119142 -0.0896754 -0.0539525 0.00671977 0.0229739
4 0.0146954 0.0896754 -0.252291 0.00394052 -0.0921149
4 0.0146954 -0.0896754 -0.0577178 0.00874479 0.0237297
4 0.0887548 0.02 -0.262096 0.0339828 -0.105538
4 0.0887548 -0.02 -0.208694 0.0414375 -0.0811416
4 0.0906078 -0.00996393 -0.223516 0.0404985 -0.0886612
4 0.0906078 0.00996393 -0.249764 0.0373776 -0.100736
4 0.0439092 0.08 -0.326673 0.00972771 -0.11918
4 0.0439092 -0.08 -0.0906196 0.0278132 -0.0105037
4 0.0688745 0.06 -0.306959 0.0164851 -0.121819
4 0.0688745 -0.06 -0.135575 0.0382603 -0.0377644
4 0.0175277 0.0896754 -0.272858 0.00478728 -0.0977467
4 0.0175277 -0.0896754 -0.0601434 0.0108409 0.023137
4 0.0864594 -0.0298918 -0.193505 0.0423621 -0.0731443
4 0.0864594 0.0298918 -0.274145 0.0305515 -0.109816
4 0.0594386 0.0697475 -0.317347 0.0120084 -0.123738
4 0.0594386 -0.0697475 -0.115048 0.0346827 -0.0248496
4 0.0204118 0.0896754 -0.289129 0.00559306 -0.102048
4 0.0204118 -0.0896754 -0.0617233 0.0129814 0.0214258
4 0.0233489 0.0896754 -0.301933 0.00638246 -0.105503
4 0.0233489 -0.0896754 -0.0628567 0.0151469 0.0188954
4 0.0783853 -0.0498197 -0.156385 0.0422744 -0.0515609
4 0.0783853 0.0498197 -0.296416 0.0213744 -0.118788
4 0.0472842 0.08 -0.327777 0.0107066 -0.121127
4 0.0472842 -0.08 -0.091429 0.029098 -0.0116682
4 0.0929523 0 -0.237117 0.0393379 -0.09567
4 0.0263398 0.0896754 -0.311957 0.0071961 -0.108487
4 0.0263398 -0.0896754 -0.0638424 0.0172957 0.0158492
4 0.0846329 0.04 -0.285573 0.0264992 -0.114809
4 0.0846329 -0.04 -0.175194 0.0429392 -0.0637107
4 0.0630915 0.0697475 -0.317068 0.0132548 -0.12549
4 0.0630915 -0.0697475 -0.114913 0.0356325 -0.0254949
4 0.0727073 0.06 -0.306846 0.0177216 -0.122848
4 0.0727073 -0.06 -0.135372 0.0391251 -0.03928
4 0.0293856 0.0896754 -0.319696 0.00804279 -0.111232
4 0.0293856 -0.0896754 -0.0648296 0.019373 0.0125978
4 0.0507211 0.08 -0.328403 0.0117383 -0.123095
4 0.0507211 -0.08 -0.0920004 0.0302855 -0.0124917
4 0.0929523 0.02 -0.262953 0.034983 -0.106968
4 0.0929523 -0.02 -0.209144 0.0422537 -0.0829394
4 0.0948324 -0.00996393 -0.223954 0.0412474 -0.0903589
4 0.0948324 0.00996393 -0.250581 0.03831 -0.102062
4 0.0324873 0.0896754 -0.325529 0.00893596 -0.113858
4 0.0324873 -0.0896754 -0.065839 0.0213173 0.00942243
4 0.0906078 -0.0298918 -0.19399 0.0432389 -0.0750837
4 0.0906078 0.0298918 -0.274933 0.0316478 -0.111374
4 0.0823856 -0.0498197 -0.156609 0.0433853 -0.0537052
4 0.0823856 0.0498197 -0.296713 0.0225674 -0.119685
4 0.0356458 0.0896754 -0.329808 0.00985572 -0.116429
4 0.0356458 -0.0896754 -0.0668183 0.0230837 0.00652552
4 0.0668113 0.0697475 -0.316929 0.0144713 -0.126888
4 0.0668113 -0.0697475 -0.114649 0.0364792 -0.0265904
4 0.054221 0.08 -0.328688 0.0128022 -0.12512
4 0.054221 -0.08 -0.0924093 0.0313779 -0.0131459
4 0.0972268 0 -0.23773 0.0401706 -0.0971485
4 0.0766105 0.06 -0.306835 0.0188476 -0.123548
4 0.0766105 -0.06 -0.135229 0.039989 -0.0411453
4 0.0887548 0.04 -0.286191 0.0275242 -0.115894
4 0.0887548 -0.04 -0.175598 0.0439726 -0.0659829
4 0.0388623 0.0896754 -0.332896 0.0108067 -0.11895
4 0.0388623 -0.0896754 -0.0676725 0.0246587 0.00408532
4 0.0577851 0.08 -0.328785 0.0138679 -0.127154
4 0.0577851 -0.08 -0.0927371 0.0323665 -0.0138257
4 0.0421378 0.0896754 -0.335149 0.011783 -0.121367
4 0.0421378 -0.0896754 -0.0683212 0.0260519 0.00217297
4 0.0705994 0.0697475 -0.316912 0.0156083 -0.127814
4 0.0705994 -0.0697475 -0.114276 0.0372221 -0.02819
4 0.0972268 0.02 -0.263918 0.0359294 -0.108244
4 0.0972268 -0.02 -0.209567 0.0430606 -0.0845999
4 0.0948324 -0.0298918 -0.194435 0.0441033 -0.0768473
4 0.0948324 0.0298918 -0.275948 0.0326945 -0.112798
4 0.0991344 -0.00996393 -0.224316 0.0420003 -0.0919249
4 0.0991344 0.00996393 -0.251411 0.0391935 -0.103374
4 0.0864594 0.0498197 -0.297213 0.0236068 -0.120467
4 0.0864594 -0.0498197 -0.156966 0.0445646 -0.0561591
4 0 0.1 0 0 0
4 0 -0.1 0 0 0
4 0.00256965 0.1 -0.0966114 0.000493991 -0.0419018
4 0.00256965 -0.1 -0.022865 0.00091124 0.0139231
4 0.00518642 0.1 -0.140528 0.00118927 -0.0575544
4 0.00518642 -0.1 -0.0311219 0.0019985 0.0206008
4 0.00785119 0.1 -0.180638 0.00212446 -0.0707945
4 0.00785119 -0.1 -0.03784 0.00344892 0.0259568
4 0.0805853 0.06 -0.306957 0.0198381 -0.124003
4 0.0805853 -0.06 -0.135235 0.0408966 -0.0433082
4 0.0454733 0.0896754 -0.336817 0.0127852 -0.123647
4 0.0454733 -0.0896754 -0.0687729 0.0272926 0.000740021
4 0.0105648 0.1 -0.215614 0.00319077 -0.0818312
4 0.0105648 -0.1 -0.0426736 0.00503381 0.0297122
4 0.0614146 0.08 -0.328815 0.0148991 -0.129045
4 0.0614146 -0.08 -0.0930456 0.0332459 -0.0147314
4 0.0133283 0.1 -0.244936 0.00432498 -0.0907308
4 0.0133283 -0.1 -0.0456724 0.00669864 0.0318662
4 0.0929523 0.04 -0.286975 0.0284384 -0.116815
4 0.0929523 -0.04 -0.175997 0.0449866 -0.0682003
4 0.0161424 0.1 -0.26883 0.00547347 -0.097674
4 0.0161424 -0.1 -0.0472662 0.00843641 0.0325703
4 0.10158 0 -0.238306 0.0409737 -0.0985032
4 0.0190081 0.1 -0.287907 0.00659961 -0.103029
4 0.0190081 -0.1 -0.0479537 0.0102384 0.0320518
4 0.074457 0.0697475 -0.316916 0.0166155 -0.128278
4 0.074457 -0.0697475 -0.113906 0.0379224 -0.0301634
4 0.0488701 0.0896754 -0.33804 0.0138088 -0.125809
4 0.0488701 -0.0896754 -0.0691199 0.0284113 -0.000346472
4 0.0219263 0.1 -0.302952 0.00770301 -0.107262
4 0.0219263 -0.1 -0.048131 0.0121003 0.030579
4 0.0248981 0.1 -0.314736 0.00880431 -0.110805
4 0.0248981 -0.1 -0.0480877 0.0140077 0.0283991
4 0.0651106 0.08 -0.328852 0.0158608 -0.130612
4 0.0651106 -0.08 -0.0933547 0.034015 -0.0160194
4 0.0906078 0.0498197 -0.297842 0.0244754 -0.120976
4 0.0906078 -0.0498197 -0.157339 0.0457448 -0.0587904
4 0.10158 0.02 -0.264915 0.0367663 -0.109211
4 0.10158 -0.02 -0.209945 0.0438613 -0.0861334
4 0.0991344 0.0298918 -0.277125 0.0336249 -0.113822
4 0.0991344 -0.0298918 -0.194894 0.0449364 -0.0784687
4 0.0846329 0.06 -0.30725 0.0206704 -0.124287
4 0.0846329 -0.06 -0.135374 0.0418664 -0.0457472
4 0.0279244 0.1 -0.323907 0.0099204 -0.113964
4 0.0279244 -0.1 -0.0480126 0.0159236 0.0257551
4 0.0523291 0.0896754 -0.338893 0.014825 -0.127944
4 0.0523291 -0.0896754 -0.0694734 0.0294269 -0.00127778
4 0.103515 -0.00996393 -0.22456 0.0427721 -0.0933213
4 0.103515 0.00996393 -0.252266 0.0399832 -0.104506
4 0.0310063 0.1 -0.330965 0.0110592 -0.116906
4 0.0310063 -0.1 -0.0479909 0.0178001 0.0228989
4 0.0783853 0.0697475 -0.316928 0.0174579 -0.128377
4 0.0783853 -0.0697475 -0.113704 0.0386252 -0.0324207
4 0.0972268 0.04 -0.287885 0.0292203 -0.117448
4 0.0972268 -0.04 -0.17638 0.0459415 -0.0702682
4 0.0688745 0.08 -0.328928 0.016725 -0.131718
4 0.0688745 -0.08 -0.0936101 0.0346839 -0.0177603
4 0.0558515 0.0896754 -0.339467 0.0157994 -0.130086
4 0.0558515 -0.0896754 -0.069909 0.0303389 -0.00223061
4 0.0341446 0.1 -0.336309 0.0122132 -0.119705
4 0.0341446 -0.1 -0.0480185 0.0195877 0.0200637
4 0.106012 0 -0.238827 0.0417198 -0.0996278
4 0.0373405 0.1 -0.340284 0.0133655 -0.122384
4 0.0373405 -0.1 -0.0480404 0.0212537 0.0174453
4 0.0948324 0.0498197 -0.298537 0.0251392 -0.121168
4 0.0948324 -0.0498197 -0.157657 0.0468586 -0.061339
4 0.0887548 0.06 -0.30772 0.0213369 -0.124425
4 0.0887548 -0.06 -0.135552 0.0428805 -0.0484375
4 0.0594386 0.0896754 -0.339874 0.0166848 -0.132136
4 0.0594386 -0.0896754 -0.0704897 0.0311313 -0.00337718
4 0.103515 -0.0298918 -0.19534 0.0457531 -0.0800205
4 0.103515 0.0298918 -0.278224 0.0343757 -0.1142
4 0.106012 -0.02 -0.210241 0.0446295 -0.0875623
4 0.106012 0.02 -0.26585 0.03748 -0.109753
4 0.040595 0.1 -0.343227 0.0145028 -0.124937
4 0.040595 -0.1 -0.0480057 0.022787 0.0151752
4 0.0823856 0.0697475 -0.31703 0.0181165 -0.128192
4 0.0823856 -0.0697475 -0.1137 0.0393811 -0.0348644
4 0.0727073 0.08 -0.329024 0.0174659 -0.132307
4 0.0727073 -0.08 -0.0937381 0.0352861 -0.0199056
4 0.107977 -0.00996393 -0.224698 0.0434893 -0.0945242
4 0.107977 0.00996393 -0.253101 0.0406748 -0.105267
4 0.10158 0.04 -0.288864 0.0298711 -0.117698
4 0.10158 -0.04 -0.17678 0.0468157 -0.0721774
4 0.0439092 0.1 -0.345448 0.0156119 -0.127336
4 0.0439092 -0.1 -0.0479043 0.0241847 0.0132989
4 0.00128135 0.109603 -0.0756485 0.000236479 -0.0338217
4 0.00128135 -0.109603 -0.0161896 0.000490891 0.0139533
4 0.0630915 0.0896754 -0.340166 0.0174573 -0.133902
4 0.0630915 -0.0896754 -0.0712332 0.0318237 -0.00487185
4 0.00386754 0.109603 -0.12196 0.000857526 -0.0510755
4 0.00386754 -0.109603 -0.0235744 0.00118809 0.0227953
4 0.00650117 0.109603 -0.1652 0.00183334 -0.0658566
4 0.00650117 -0.109603 -0.0294044 0.00237158 0.0301239
4 0.00918311 0.109603 -0.203835 0.00303622 -0.0784598
4 0.00918311 -0.109603 -0.0333493 0.00368243 0.0356657
4 0.0119142 0.109603 -0.236835 0.00437793 -0.0888589
4 0.0119142 -0.109603 -0.0353715 0.00502852 0.0393763
4 0.110526 0 -0.239266 0.0423681 -0.100493
4 0.0146954 0.109603 -0.264112 0.005796 -0.0971133
4 0.0146954 -0.109603 -0.0359187 0.00642987 0.0414363
4 0.0472842 0.1 -0.347183 0.0166846 -0.129558
4 0.0472842 -0.1 -0.0477803 0.0254546 0.0117792
4 0.0929523 0.06 -0.308337 0.0218499 -0.124422
4 0.0929523 -0.06 -0.135694 0.0438881 -0.0512469
4 0.0766105 0.08 -0.32911 0.0180599 -0.132417
4 0.0766105 -0.08 -0.0937399 0.0358636 -0.0223172
4 0.0991344 0.0498197 -0.299283 0.0256479 -0.121058
4 0.0991344 -0.0498197 -0.157974 0.0478473 -0.0636808
4 0.0175277 0.109603 -0.286081 0.00721943 -0.103503
4 0.0175277 -0.109603 -0.0355301 0.00789754 0.0421175