0 	0 	0 	0 	0 	0 	0
0.00128482 	-0.0126595 	-7.95943e-05 	0.00169047 	-0.0114418 	-5.78531e-05 	-5.06307e-05
0.00256965 	-0.0253189 	-0.000159189 	0.00338094 	-0.0228836 	-0.000115706 	-0.000101261
0.00387803 	-0.0315003 	-0.00024804 	0.00448339 	-0.0283952 	-0.000144958 	-0.000136196
0.00518642 	-0.0376816 	-0.000336891 	0.00558583 	-0.0339068 	-0.000174209 	-0.000171131
0.00651881 	-0.0388572 	-0.00031417 	0.00635916 	-0.0343388 	-6.67173e-05 	-0.000195551
0.00785119 	-0.0400329 	-0.00029145 	0.00713249 	-0.0347708 	4.07745e-05 	-0.000219971
0.00920802 	-0.0360498 	-3.42343e-05 	0.00764058 	-0.0300123 	0.000381521 	-0.000234229
0.0105648 	-0.0320667 	0.000222981 	0.00814867 	-0.0252539 	0.000722268 	-0.000248487
0.0119465 	-0.0229871 	0.000786447 	0.00845276 	-0.0154393 	0.00134742 	-0.000253725
0.0133283 	-0.0139075 	0.00134991 	0.00875684 	-0.00562461 	0.00197258 	-0.000258963
0.0147353 	-9.75626e-05 	0.00224021 	0.00891342 	0.00881497 	0.00289392 	-0.000257185
0.0161424 	0.0137124 	0.0031305 	0.00907 	0.0232546 	0.00381525 	-0.000255407
0.0175752 	0.0317337 	0.00433101 	0.00912526 	0.0417719 	0.00501966 	-0.000248993
0.0190081 	0.0497551 	0.00553152 	0.00918053 	0.0602893 	0.00622407 	-0.00024258
0.0204672 	0.0714344 	0.00701617 	0.00916488 	0.0823276 	0.00769136 	-0.000233751
0.0219263 	0.0931137 	0.00850083 	0.00914924 	0.104366 	0.00915866 	-0.000224922
0.0234122 	0.117904 	0.0102432 	0.00907985 	0.129387 	0.010866 	-0.000215414
0.0248981 	0.142694 	0.0119855 	0.00901045 	0.154408 	0.0125733 	-0.000205905
0.0264113 	0.170062 	0.0139531 	0.00890084 	0.181888 	0.0144923 	-0.000196836
0.0279244 	0.19743 	0.0159207 	0.00879122 	0.209369 	0.0164113 	-0.000187767
0.0294653 	0.226855 	0.0180787 	0.0086534 	0.238793 	0.0185099 	-0.000179676
0.0310063 	0.25628 	0.0202367 	0.00851557 	0.268218 	0.0206084 	-0.000171586
0.0325754 	0.287243 	0.0225484 	0.00836019 	0.299076 	0.0228519 	-0.0001646
0.0341446 	0.318206 	0.0248602 	0.00820481 	0.329934 	0.0250955 	-0.000157615
0.0357425 	0.350187 	0.0272867 	0.00804068 	0.361712 	0.0274466 	-0.000151634
0.0373405 	0.382167 	0.0297132 	0.00787656 	0.39349 	0.0297978 	-0.000145653
0.0389677 	0.414629 	0.0322117 	0.00771051 	0.425662 	0.0322155 	-0.000140504
0.040595 	0.44709 	0.0347102 	0.00754446 	0.457834 	0.0346331 	-0.000135355
0.0422521 	0.479485 	0.0372332 	0.00738157 	0.489858 	0.0370717 	-0.00013088
0.0439092 	0.511879 	0.0397561 	0.00721867 	0.521882 	0.0395103 	-0.000126406
0.0455967 	0.54366 	0.0422522 	0.00706255 	0.553206 	0.0419212 	-0.000122488
0.0472842 	0.57544 	0.0447484 	0.00690644 	0.58453 	0.044332 	-0.00011857
0.0490026 	0.606017 	0.0471644 	0.00675981 	0.614573 	0.0466647 	-0.00011514
0.0507211 	0.636594 	0.0495804 	0.00661318 	0.644617 	0.0489974 	-0.00011171
0.052471 	0.665329 	0.0518614 	0.00647833 	0.672767 	0.0511998 	-0.00010874
0.054221 	0.694064 	0.0541425 	0.00634347 	0.700918 	0.0534022 	-0.000105771
0.056003 	0.720332 	0.0562342 	0.00622246 	0.726573 	0.0554218 	-0.000103252
0.0577851 	0.746599 	0.058326 	0.00610145 	0.752228 	0.0574415 	-0.000100734
0.0595998 	0.769829 	0.0601774 	0.00599609 	0.774846 	0.0592289 	-9.86622e-05
0.0614146 	0.793059 	0.0620288 	0.00589072 	0.797463 	0.0610164 	-9.65905e-05
0.0632626 	0.812791 	0.0635959 	0.00580233 	0.816622 	0.0625291 	-9.49581e-05
0.0651106 	0.832523 	0.0651631 	0.00571395 	0.835781 	0.0640418 	-9.33258e-05
0.0669925 	0.848524 	0.0664159 	0.00564307 	0.851274 	0.0652504 	-9.21083e-05
0.0688745 	0.864526 	0.0676687 	0.00557219 	0.866767 	0.066459 	-9.08908e-05
0.0707909 	0.876862 	0.0685989 	0.00551819 	0.878667 	0.0673569 	-9.00353e-05
0.0727073 	0.889199 	0.0695291 	0.00546419 	0.890567 	0.0682547 	-8.91798e-05
0.0746589 	0.898206 	0.070157 	0.00542519 	0.899225 	0.0688632 	-8.86135e-05
0.0766105 	0.907212 	0.0707848 	0.00538619 	0.907884 	0.0694718 	-8.80472e-05
0.0785979 	0.913446 	0.0711568 	0.00535943 	0.913867 	0.069837 	-8.76922e-05
0.0805853 	0.91968 	0.0715287 	0.00533267 	0.919849 	0.0702022 	-8.73372e-05
0.0826091 	0.923808 	0.0717052 	0.00531512 	0.923807 	0.0703823 	-8.71264e-05
0.0846329 	0.927935 	0.0718816 	0.00529756 	0.927765 	0.0705624 	-8.69157e-05
0.0866939 	0.930582 	0.0719221 	0.00528644 	0.930306 	0.0706141 	-8.67982e-05
0.0887548 	0.93323 	0.0719626 	0.00527532 	0.932847 	0.0706657 	-8.66808e-05
0.0908536 	0.934899 	0.0719159 	0.00526843 	0.934453 	0.0706347 	-8.66175e-05
0.0929523 	0.936569 	0.0718691 	0.00526154 	0.93606 	0.0706037 	-8.65542e-05
0.0950896 	0.937618 	0.0717695 	0.00525732 	0.937076 	0.0705225 	-8.65205e-05
0.0972268 	0.938666 	0.0716699 	0.00525309 	0.938092 	0.0704412 	-8.64867e-05
0.0994033 	0.93933 	0.0715397 	0.00525052 	0.938743 	0.0703309 	-8.64708e-05
0.10158 	0.939994 	0.0714095 	0.00524794 	0.939393 	0.0702205 	-8.64549e-05
0.103796 	0.940422 	0.0712626 	0.00524636 	0.93982 	0.0700939 	-8.64495e-05
0.106012 	0.94085 	0.0711158 	0.00524478 	0.940246 	0.0699674 	-8.64441e-05
0.108269 	0.941133 	0.070961 	0.0052438 	0.940535 	0.0698323 	-8.64424e-05
0.110526 	0.941416 	0.0708062 	0.00524281 	0.940825 	0.0696973 	-8.64406e-05
0.112825 	0.941611 	0.0706488 	0.00524219 	0.94103 	0.0695585 	-8.644e-05
0.115123 	0.941805 	0.0704914 	0.00524156 	0.941236 	0.0694197 	-8.64394e-05
0.117464 	0.941946 	0.0703346 	0.00524116 	0.94139 	0.06928 	-8.64393e-05
0.119804 	0.942086 	0.0701779 	0.00524076 	0.941543 	0.0691403 	-8.64392e-05
0.122188 	0.942192 	0.0700238 	0.00524052 	0.941665 	0.0690015 	-8.64379e-05
0.124571 	0.942298 	0.0698697 	0.00524029 	0.941786 	0.0688628 	-8.64366e-05
0.126999 	0.942382 	0.0697196 	0.00524019 	0.941885 	0.0687261 	-8.64346e-05
0.129426 	0.942466 	0.0695695 	0.0052401 	0.941984 	0.0685893 	-8.64327e-05
0.131897 	0.942535 	0.0694242 	0.00524016 	0.942066 	0.0684554 	-8.64301e-05
0.134369 	0.942603 	0.0692789 	0.00524022 	0.942149 	0.0683214 	-8.64275e-05
0.136886 	0.942658 	0.0691388 	0.00524045 	0.942217 	0.0681905 	-8.64269e-05
0.139403 	0.942713 	0.0689987 	0.00524068 	0.942286 	0.0680596 	-8.64263e-05
0.141967 	0.942755 	0.0688642 	0.00524109 	0.942339 	0.067932 	-8.643e-05
0.14453 	0.942797 	0.0687296 	0.0052415 	0.942393 	0.0678045 	-8.64338e-05
0.14714 	0.942823 	0.0686006 	0.00524208 	0.94243 	0.0676806 	-8.64426e-05
0.14975 	0.94285 	0.0684717 	0.00524266 	0.942468 	0.0675566 	-8.64514e-05
0.152408 	0.942858 	0.0683483 	0.00524339 	0.942485 	0.0674362 	-8.64689e-05
0.155066 	0.942865 	0.0682249 	0.00524412 	0.942503 	0.0673158 	-8.64865e-05
0.157773 	0.94285 	0.068107 	0.00524497 	0.942498 	0.0671989 	-8.65121e-05
0.16048 	0.942834 	0.067989 	0.00524582 	0.942492 	0.0670821 	-8.65378e-05
0.163237 	0.942789 	0.0678761 	0.00524674 	0.942456 	0.0669687 	-8.65691e-05
0.165993 	0.942743 	0.0677632 	0.00524766 	0.942421 	0.0668553 	-8.66004e-05
0.1688 	0.942663 	0.0676551 	0.00524863 	0.942351 	0.0667454 	-8.66341e-05
0.171607 	0.942582 	0.0675469 	0.00524959 	0.94228 	0.0666354 	-8.66678e-05
0.174466 	0.94246 	0.0674432 	0.00525057 	0.94217 	0.0665287 	-8.67015e-05
0.177324 	0.942338 	0.0673394 	0.00525155 	0.942059 	0.0664219 	-8.67352e-05
0.180235 	0.942171 	0.0672397 	0.00525255 	0.941905 	0.0663185 	-8.67657e-05
0.183146 	0.942005 	0.0671401 	0.00525354 	0.94175 	0.066215 	-8.67963e-05
0.186111 	0.941792 	0.0670445 	0.00525456 	0.941551 	0.0661149 	-8.68223e-05
0.189075 	0.941579 	0.0669489 	0.00525558 	0.941351 	0.0660149 	-8.68483e-05
0.192094 	0.941322 	0.0668575 	0.00525664 	0.941109 	0.0659186 	-8.68725e-05
0.195113 	0.941066 	0.0667662 	0.0052577 	0.940867 	0.0658223 	-8.68967e-05
0.198187 	0.940771 	0.0666796 	0.00525883 	0.940586 	0.0657306 	-8.6921e-05
0.201261 	0.940475 	0.066593 	0.00525995 	0.940305 	0.0656389 	-8.69453e-05
0.204391 	0.940149 	0.0665118 	0.00526115 	0.939993 	0.0655524 	-8.69702e-05
0.207522 	0.939822 	0.0664306 	0.00526235 	0.939681 	0.065466 	-8.69951e-05
0.21071 	0.939472 	0.0663556 	0.00526361 	0.939345 	0.0653859 	-8.70225e-05
0.213898 	0.939123 	0.0662806 	0.00526487 	0.939009 	0.0653057 	-8.705e-05
0.217144 	0.938757 	0.0662125 	0.00526618 	0.938656 	0.0652327 	-8.70806e-05
0.22039 	0.938391 	0.0661444 	0.00526749 	0.938302 	0.0651597 	-8.71112e-05
0.223696 	0.938016 	0.0660839 	0.00526881 	0.937936 	0.0650947 	-8.7145e-05
0.227002 	0.93764 	0.0660234 	0.00527012 	0.937571 	0.0650297 	-8.71787e-05
0.230369 	0.937259 	0.065971 	0.00527143 	0.937197 	0.0649732 	-8.72136e-05
0.233735 	0.936878 	0.0659187 	0.00527273 	0.936824 	0.0649168 	-8.72486e-05
0.237164 	0.936493 	0.0658748 	0.00527399 	0.936444 	0.0648695 	-8.72849e-05
0.240592 	0.936108 	0.065831 	0.00527526 	0.936065 	0.0648222 	-8.73212e-05
0.244083 	0.935721 	0.0657961 	0.00527647 	0.935681 	0.0647844 	-8.73593e-05
0.247574 	0.935334 	0.0657611 	0.00527768 	0.935297 	0.0647467 	-8.73974e-05
0.251129 	0.934944 	0.0657353 	0.00527884 	0.934908 	0.0647188 	-8.74355e-05
0.254685 	0.934554 	0.0657094 	0.00527999 	0.93452 	0.064691 	-8.74736e-05
0.258305 	0.934161 	0.0656929 	0.00528109 	0.934127 	0.0646733 	-8.7513e-05
0.261925 	0.933768 	0.0656764 	0.00528219 	0.933734 	0.0646556 	-8.75524e-05
0.265612 	0.933372 	0.0656693 	0.00528323 	0.933336 	0.0646484 	-8.75917e-05
0.269299 	0.932975 	0.0656623 	0.00528427 	0.932939 	0.0646412 	-8.7631e-05
0.273053 	0.932574 	0.065665 	0.00528525 	0.932536 	0.0646447 	-8.76698e-05
0.276808 	0.932173 	0.0656678 	0.00528623 	0.932134 	0.0646482 	-8.77086e-05
0.280631 	0.931768 	0.0656805 	0.00528714 	0.931728 	0.0646627 	-8.77461e-05
0.284454 	0.931363 	0.0656932 	0.00528805 	0.931322 	0.0646773 	-8.77837e-05
0.288348 	0.930956 	0.0657163 	0.00528887 	0.930914 	0.0647032 	-8.78199e-05
0.292241 	0.93055 	0.0657394 	0.00528969 	0.930507 	0.0647292 	-8.78561e-05
0.296206 	0.930145 	0.0657735 	0.00529041 	0.930102 	0.0647671 	-8.7893e-05
0.300171 	0.92974 	0.0658075 	0.00529112 	0.929697 	0.0648051 	-8.79299e-05
0.304208 	0.929343 	0.0658532 	0.00529171 	0.929298 	0.0648555 	-8.79642e-05
0.308246 	0.928945 	0.0658989 	0.0052923 	0.9289 	0.064906 	-8.79986e-05
0.312358 	0.928558 	0.065957 	0.00529273 	0.928513 	0.0649697 	-8.80304e-05
0.316469 	0.928172 	0.0660151 	0.00529316 	0.928126 	0.0650333 	-8.80623e-05
0.320656 	0.9278 	0.0660863 	0.00529341 	0.927754 	0.0651107 	-8.80923e-05
0.324843 	0.927428 	0.0661576 	0.00529367 	0.927382 	0.0651881 	-8.81224e-05
0.329107 	0.927072 	0.0662425 	0.00529373 	0.927027 	0.0652797 	-8.8148e-05
0.333371 	0.926716 	0.0663273 	0.0052938 	0.926671 	0.0653713 	-8.81737e-05
0.337713 	0.926375 	0.0664261 	0.00529368 	0.926332 	0.0654772 	-8.81969e-05
0.342055 	0.926034 	0.0665248 	0.00529357 	0.925992 	0.0655831 	-8.82202e-05
0.346476 	0.925705 	0.0666374 	0.00529328 	0.925665 	0.0657033 	-8.82421e-05
0.350898 	0.925375 	0.06675 	0.00529298 	0.925338 	0.0658235 	-8.8264e-05
0.355401 	0.925056 	0.0668763 	0.00529252 	0.925023 	0.0659578 	-8.82822e-05
0.359903 	0.924736 	0.0670026 	0.00529207 	0.924707 	0.0660921 	-8.83004e-05
0.364489 	0.924426 	0.0671427 	0.00529144 	0.924402 	0.0662405 	-8.83155e-05
0.369074 	0.924115 	0.0672828 	0.00529081 	0.924096 	0.0663889 	-8.83305e-05
0.373744 	0.923815 	0.067437 	0.00529 	0.923803 	0.0665515 	-8.8345e-05
0.378413 	0.923516 	0.0675911 	0.0052892 	0.923509 	0.0667141 	-8.83594e-05
0.383168 	0.923228 	0.0677596 	0.00528821 	0.923229 	0.0668912 	-8.83714e-05
0.387923 	0.922941 	0.0679281 	0.00528722 	0.922948 	0.0670682 	-8.83834e-05
0.392765 	0.922667 	0.0681112 	0.00528604 	0.922683 	0.0672599 	-8.83917e-05
0.397608 	0.922393 	0.0682944 	0.00528486 	0.922417 	0.0674515 	-8.83999e-05
0.402539 	0.922134 	0.0684924 	0.00528349 	0.922166 	0.0676578 	-8.8405e-05
0.40747 	0.921874 	0.0686905 	0.00528212 	0.921915 	0.0678641 	-8.841e-05
0.412491 	0.92163 	0.0689035 	0.00528054 	0.92168 	0.068085 	-8.8414e-05
0.417513 	0.921385 	0.0691164 	0.00527896 	0.921444 	0.0683059 	-8.84179e-05
0.422626 	0.921156 	0.0693444 	0.00527719 	0.921225 	0.0685413 	-8.84199e-05
0.42774 	0.920926 	0.0695723 	0.00527541 	0.921005 	0.0687768 	-8.84218e-05
0.432948 	0.920712 	0.0698151 	0.00527342 	0.920802 	0.0690268 	-8.84215e-05
0.438155 	0.920498 	0.0700579 	0.00527143 	0.920598 	0.0692767 	-8.84212e-05
0.443458 	0.9203 	0.0703156 	0.00526923 	0.920411 	0.0695411 	-8.84188e-05
0.448761 	0.920102 	0.0705734 	0.00526702 	0.920224 	0.0698055 	-8.84164e-05
0.454161 	0.91992 	0.0708458 	0.0052646 	0.920053 	0.0700841 	-8.84115e-05
0.459561 	0.919738 	0.0711182 	0.00526217 	0.919882 	0.0703627 	-8.84067e-05
0.46506 	0.919573 	0.0714053 	0.00525952 	0.919728 	0.0706555 	-8.83999e-05
0.47056 	0.919407 	0.0716923 	0.00525686 	0.919574 	0.0709482 	-8.83932e-05
0.47616 	0.919259 	0.0719937 	0.00525398 	0.919438 	0.0712548 	-8.83845e-05
0.48176 	0.91911 	0.0722951 	0.0052511 	0.919301 	0.0715615 	-8.83759e-05
0.487463 	0.918979 	0.0726108 	0.00524797 	0.919182 	0.0718818 	-8.83642e-05
0.493165 	0.918848 	0.0729265 	0.00524485 	0.919063 	0.0722021 	-8.83525e-05
0.498973 	0.918735 	0.0732562 	0.00524148 	0.918962 	0.072536 	-8.83397e-05
0.50478 	0.918622 	0.0735859 	0.00523811 	0.918861 	0.0728698 	-8.83269e-05
0.510694 	0.918528 	0.0739294 	0.0052345 	0.918779 	0.0732168 	-8.83126e-05
0.516608 	0.918434 	0.074273 	0.00523088 	0.918697 	0.0735639 	-8.82983e-05
0.52263 	0.918359 	0.0746301 	0.005227 	0.918634 	0.0739239 	-8.82809e-05
0.528653 	0.918285 	0.0749871 	0.00522313 	0.918571 	0.0742839 	-8.82636e-05
0.534786 	0.91823 	0.0753574 	0.00521899 	0.918529 	0.0746566 	-8.82437e-05
0.540918 	0.918176 	0.0757277 	0.00521485 	0.918486 	0.0750292 	-8.82239e-05
0.547164 	0.918142 	0.0761108 	0.00521043 	0.918464 	0.0754142 	-8.82022e-05
0.553409 	0.918108 	0.0764939 	0.00520602 	0.918442 	0.0757991 	-8.81805e-05
0.559769 	0.918096 	0.0768895 	0.00520133 	0.918442 	0.0761959 	-8.8157e-05
0.566129 	0.918084 	0.077285 	0.00519664 	0.918441 	0.0765927 	-8.81334e-05
0.572605 	0.918094 	0.0776926 	0.00519166 	0.918463 	0.077001 	-8.81066e-05
0.579082 	0.918104 	0.0781001 	0.00518668 	0.918484 	0.0774092 	-8.80798e-05
0.585677 	0.918137 	0.0785191 	0.00518141 	0.918528 	0.0778284 	-8.80507e-05
0.592272 	0.91817 	0.078938 	0.00517614 	0.918572 	0.0782476 	-8.80215e-05
0.598989 	0.918227 	0.0793679 	0.00517056 	0.91864 	0.0786771 	-8.79903e-05
0.605705 	0.918284 	0.0797978 	0.00516499 	0.918708 	0.0791067 	-8.79592e-05
0.612544 	0.918365 	0.080238 	0.0051591 	0.9188 	0.0795461 	-8.79249e-05
0.619384 	0.918447 	0.0806782 	0.00515321 	0.918892 	0.0799855 	-8.78906e-05
0.626349 	0.918554 	0.081128 	0.005147 	0.919009 	0.080434 	-8.78527e-05
0.633314 	0.918661 	0.0815778 	0.00514079 	0.919126 	0.0808825 	-8.78147e-05
0.640406 	0.918794 	0.0820365 	0.00513426 	0.91927 	0.0813394 	-8.77729e-05
0.647499 	0.918928 	0.0824952 	0.00512772 	0.919413 	0.0817963 	-8.77311e-05
0.654722 	0.919088 	0.0829619 	0.00512085 	0.919583 	0.0822609 	-8.76869e-05
0.661944 	0.919249 	0.0834287 	0.00511398 	0.919753 	0.0827255 	-8.76426e-05
0.669299 	0.919437 	0.0839027 	0.00510676 	0.919951 	0.0831968 	-8.75953e-05
0.676655 	0.919626 	0.0843767 	0.00509953 	0.920148 	0.0836682 	-8.7548e-05
0.684145 	0.919843 	0.0848569 	0.00509196 	0.920375 	0.0841454 	-8.74943e-05
0.691635 	0.920061 	0.0853372 	0.00508438 	0.920601 	0.0846226 	-8.74406e-05
0.699262 	0.920308 	0.0858226 	0.00507644 	0.920856 	0.0851046 	-8.73827e-05
0.70689 	0.920555 	0.0863081 	0.00506849 	0.921112 	0.0855866 	-8.73247e-05
0.714657 	0.920833 	0.0867976 	0.00506018 	0.921398 	0.0860723 	-8.72629e-05
0.722424 	0.921111 	0.0872872 	0.00505186 	0.921684 	0.086558 	-8.7201e-05
0.730334 	0.92142 	0.0877797 	0.00504316 	0.922001 	0.0870463 	-8.71336e-05
0.738244 	0.921729 	0.0882722 	0.00503445 	0.922318 	0.0875345 	-8.70662e-05
0.746299 	0.922071 	0.0887663 	0.00502535 	0.922667 	0.088024 	-8.69919e-05
0.754354 	0.922412 	0.0892604 	0.00501625 	0.923015 	0.0885136 	-8.69175e-05
0.762556 	0.922786 	0.0897547 	0.00500674 	0.923397 	0.089003 	-8.6837e-05
0.770759 	0.923161 	0.0902491 	0.00499724 	0.923778 	0.0894924 	-8.67565e-05
0.779112 	0.923569 	0.0907422 	0.00498731 	0.924193 	0.0899802 	-8.66703e-05
0.787465 	0.923976 	0.0912353 	0.00497739 	0.924607 	0.090468 	-8.65841e-05
0.795971 	0.924419 	0.0917256 	0.00496704 	0.925056 	0.0909526 	-8.64898e-05
0.804478 	0.924861 	0.0922158 	0.00495668 	0.925504 	0.0914373 	-8.63954e-05
0.81314 	0.925338 	0.0927016 	0.00494589 	0.925987 	0.0919171 	-8.62936e-05
0.821802 	0.925815 	0.0931874 	0.0049351 	0.92647 	0.092397 	-8.61918e-05
0.830623 	0.926328 	0.0936669 	0.00492387 	0.926988 	0.0928702 	-8.60825e-05
0.839445 	0.926841 	0.0941464 	0.00491263 	0.927506 	0.0933434 	-8.59731e-05
0.848428 	0.927389 	0.0946177 	0.00490093 	0.928059 	0.0938082 	-8.5853e-05
0.857411 	0.927937 	0.0950891 	0.00488923 	0.928613 	0.094273 	-8.57329e-05
0.866558 	0.928522 	0.0955503 	0.00487706 	0.929202 	0.0947273 	-8.56042e-05
0.875706 	0.929106 	0.0960115 	0.0048649 	0.929791 	0.0951817 	-8.54756e-05
0.885021 	0.929727 	0.0964606 	0.00485225 	0.930416 	0.0956235 	-8.53366e-05
0.894337 	0.930348 	0.0969096 	0.0048396 	0.931041 	0.0960653 	-8.51976e-05
0.903823 	0.931005 	0.0973443 	0.00482646 	0.931701 	0.0964925 	-8.50478e-05
0.91331 	0.931662 	0.097779 	0.00481332 	0.932362 	0.0969197 	-8.4898e-05
0.92297 	0.932356 	0.0981971 	0.00479967 	0.933059 	0.09733 	-8.47378e-05
0.93263 	0.933049 	0.0986152 	0.00478603 	0.933756 	0.0977403 	-8.45777e-05
0.942468 	0.933779 	0.0990144 	0.00477187 	0.934489 	0.0981314 	-8.4405e-05
0.952305 	0.934508 	0.0994136 	0.00475771 	0.935221 	0.0985226 	-8.42324e-05
0.962323 	0.935274 	0.0997915 	0.00474303 	0.935989 	0.0988922 	-8.40474e-05
0.972341 	0.93604 	0.100169 	0.00472835 	0.936757 	0.0992617 	-8.38624e-05
0.982543 	0.93684 	0.100523 	0.00471313 	0.93756 	0.0996074 	-8.36634e-05
0.992745 	0.937641 	0.100878 	0.00469792 	0.938363 	0.099953 	-8.34643e-05
1.00313 	0.938476 	0.101206 	0.00468217 	0.939199 	0.100272 	-8.32525e-05
1.01352 	0.939311 	0.101534 	0.00466641 	0.940036 	0.100591 	-8.30406e-05
1.0241 	0.94018 	0.101833 	0.00465011 	0.940905 	0.100881 	-8.28155e-05
1.03468 	0.941049 	0.102132 	0.0046338 	0.941775 	0.101171 	-8.25903e-05
1.04545 	0.94195 	0.1024 	0.00461693 	0.942676 	0.10143 	-8.23501e-05
1.05623 	0.942851 	0.102668 	0.00460006 	0.943578 	0.101689 	-8.21099e-05
1.07817 	0.944715 	0.103136 	0.00456517 	0.945441 	0.102138 	-8.1598e-05
1.10051 	0.946637 	0.103532 	0.00452912 	0.947363 	0.102515 	-8.10566e-05
1.11189 	0.947626 	0.103691 	0.00451049 	0.94835 	0.102664 	-8.07699e-05
1.12327 	0.948615 	0.10385 	0.00449187 	0.949338 	0.102814 	-8.04833e-05
1.13485 	0.949629 	0.103968 	0.00447265 	0.95035 	0.102922 	-8.01793e-05
1.14644 	0.950643 	0.104087 	0.00445343 	0.951363 	0.10303 	-7.98754e-05
1.15824 	0.95168 	0.104162 	0.00443361 	0.952397 	0.103095 	-7.95544e-05
1.17004 	0.952718 	0.104237 	0.00441378 	0.953432 	0.10316 	-7.92334e-05
1.18205 	0.953775 	0.104267 	0.00439334 	0.954486 	0.10318 	-7.88961e-05
1.19407 	0.954833 	0.104296 	0.0043729 	0.95554 	0.1032 	-7.85589e-05
1.2063 	0.955908 	0.104279 	0.00435184 	0.956612 	0.103172 	-7.8205e-05
1.21854 	0.956984 	0.104261 	0.00433079 	0.957683 	0.103145 	-7.78512e-05
1.24345 	0.959164 	0.104128 	0.00428744 	0.959854 	0.102992 	-7.71079e-05
1.26883 	0.961367 	0.103894 	0.00424283 	0.962047 	0.102738 	-7.63271e-05
1.29467 	0.963588 	0.103556 	0.00419695 	0.964255 	0.102381 	-7.55102e-05
1.30783 	0.964703 	0.103335 	0.0041734 	0.965364 	0.102149 	-7.50835e-05
1.32099 	0.965818 	0.103113 	0.00414984 	0.966472 	0.101918 	-7.46568e-05
1.33439 	0.966934 	0.102838 	0.00412567 	0.967582 	0.101633 	-7.42106e-05
1.34778 	0.968051 	0.102563 	0.0041015 	0.968691 	0.101349 	-7.37644e-05
1.36143 	0.969166 	0.102234 	0.00407671 	0.969799 	0.101011 	-7.32989e-05
1.37507 	0.97028 	0.101906 	0.00405192 	0.970906 	0.100673 	-7.28335e-05
1.40286 	0.972499 	0.10114 	0.00400113 	0.973109 	0.0998888 	-7.18642e-05
1.43116 	0.974702 	0.100268 	0.00394916 	0.975296 	0.0989984 	-7.08512e-05
1.45998 	0.976887 	0.0992907 	0.00389611 	0.977464 	0.0980023 	-6.97943e-05
1.48933 	0.97906 	0.098198 	0.00384116 	0.979616 	0.0968929 	-6.87217e-05
1.51921 	0.981224 	0.0969846 	0.00378454 	0.981752 	0.0956675 	-6.76046e-05
1.53443 	0.982289 	0.0963262 	0.00375576 	0.982801 	0.0950037 	-6.70226e-05
1.54965 	0.983353 	0.0956677 	0.00372698 	0.98385 	0.0943399 	-6.64406e-05
1.56514 	0.984387 	0.0949625 	0.0036976 	0.984867 	0.0936297 	-6.58474e-05
1.58064 	0.98542 	0.0942573 	0.00366823 	0.985884 	0.0929195 	-6.52541e-05
1.59642 	0.986414 	0.0935064 	0.00363836 	0.986861 	0.0921649 	-6.46424e-05
1.6122 	0.987408 	0.0927555 	0.00360849 	0.987838 	0.0914104 	-6.40307e-05
1.62827 	0.988354 	0.0919655 	0.00357845 	0.988769 	0.0906169 	-6.33946e-05
1.64434 	0.9893 	0.0911755 	0.00354841 	0.989699 	0.0898235 	-6.27586e-05
1.6607 	0.990195 	0.0903489 	0.00351799 	0.990579 	0.0889934 	-6.2111e-05
1.67707 	0.991089 	0.0895223 	0.00348758 	0.99146 	0.0881633 	-6.14634e-05
1.69373 	0.991938 	0.0886566 	0.00345658 	0.992294 	0.0872954 	-6.08058e-05
1.7104 	0.992786 	0.0877908 	0.00342559 	0.993128 	0.0864275 	-6.01482e-05
1.72737 	0.993593 	0.0868884 	0.00339421 	0.993921 	0.0855243 	-5.9472e-05
1.74434 	0.994399 	0.0859861 	0.00336283 	0.994713 	0.0846211 	-5.87958e-05
1.76162 	0.995164 	0.0850519 	0.00333107 	0.995465 	0.0836869 	-5.81066e-05
1.7789 	0.99593 	0.0841177 	0.00329932 	0.996216 	0.0827527 	-5.74173e-05
1.7965 	0.996653 	0.0831547 	0.0032672 	0.996926 	0.0817907 	-5.67154e-05
1.81409 	0.997376 	0.0821916 	0.00323509 	0.997636 	0.0808287 	-5.60134e-05
1.83202 	0.998058 	0.0812028 	0.00320264 	0.998304 	0.0798417 	-5.52961e-05
1.84994 	0.998739 	0.080214 	0.00317019 	0.998972 	0.0788548 	-5.45789e-05
1.86819 	0.99938 	0.0792021 	0.0031374 	0.999601 	0.077846 	-5.38498e-05
1.88644 	1.00002 	0.0781902 	0.00310461 	1.00023 	0.0768373 	-5.31208e-05
1.90502 	1.00062 	0.0771598 	0.00307152 	1.00082 	0.0758103 	-5.23848e-05
1.9236 	1.00122 	0.0761293 	0.00303843 	1.0014 	0.0747834 	-5.16488e-05
1.94253 	1.00172 	0.07496 	0.00300341 	1.0019 	0.0736228 	-5.08759e-05
1.96146 	1.00223 	0.0737907 	0.00296839 	1.00239 	0.0724623 	-5.0103e-05
1.98073 	1.00265 	0.0730409 	0.00294777 	1.0028 	0.0717152 	-4.95905e-05
2 	1.00307 	0.0722911 	0.00292716 	1.0032 	0.0709682 	-4.9078e-05
