0 0.585352
0.000963618 0.585339
0.00192724 0.585327
0.00290853 0.585297
0.00388982 0.585273
0.00488911 0.585199
0.0058884 0.585146
0.00690601 0.58498
0.00792363 0.584874
0.00895991 0.584586
0.00999619 0.584419
0.0110515 0.583995
0.0121068 0.583741
0.0131814 0.583196
0.0142561 0.582828
0.0153504 0.582201
0.0164448 0.581713
0.0175592 0.581031
0.0186736 0.580453
0.0198085 0.579731
0.0209433 0.5791
0.022099 0.578356
0.0232547 0.577696
0.0244316 0.576953
0.0256084 0.576287
0.0268069 0.575568
0.0280054 0.574924
0.0292258 0.574255
0.0304462 0.573665
0.0316891 0.57307
0.0329319 0.572568
0.0341975 0.572065
0.0354631 0.571686
0.036752 0.571285
0.0380408 0.571057
0.0393533 0.570756
0.0406657 0.570696
0.0420023 0.570492
0.0433388 0.570608
0.0446999 0.570509
0.0460609 0.570805
0.047447 0.57083
0.048833 0.571298
0.0502444 0.571464
0.0516559 0.572095
0.0530932 0.572399
0.0545305 0.573174
0.0559942 0.573592
0.0574579 0.574474
0.0589484 0.574967
0.060439 0.575905
0.0619568 0.576424
0.0634747 0.57737
0.0650204 0.577869
0.0665661 0.578774
0.0681402 0.579206
0.0697143 0.580019
0.0713172 0.58035
0.0729201 0.581022
0.0745524 0.581199
0.0761848 0.581683
0.077847 0.581654
0.0795093 0.581895
0.0812021 0.581625
0.0828948 0.581553
0.0846186 0.581008
0.0863424 0.580571
0.0880979 0.579764
0.0898533 0.578977
0.0916409 0.577929
0.0934285 0.576821
0.0952489 0.575537
0.0970693 0.574125
0.0989231 0.572613
0.100777 0.570923
0.102665 0.569199
0.104552 0.567261
0.106475 0.565347
0.108397 0.563207
0.110355 0.561135
0.112313 0.55884
0.114306 0.556642
0.1163 0.554228
0.11833 0.551935
0.12036 0.549436
0.122428 0.547079
0.124495 0.544531
0.1266 0.542142
0.128705 0.539585
0.130849 0.537193
0.132993 0.534661
0.135177 0.532291
0.13736 0.52981
0.139583 0.527486
0.141806 0.525078
0.14407 0.522818
0.146334 0.520502
0.14864 0.51832
0.150946 0.516111
0.153293 0.514021
0.155641 0.511928
0.158032 0.509939
0.160423 0.50797
0.162858 0.506088
0.165293 0.504246
0.167772 0.502476
0.170252 0.500765
0.172776 0.499108
0.175301 0.497521
0.177873 0.495978
0.180444 0.494507
0.183062 0.493079
0.185681 0.491728
0.188347 0.490411
0.191013 0.48918
0.193729 0.487971
0.196444 0.486849
0.199209 0.485743
0.201974 0.484724
0.20479 0.483714
0.207606 0.482791
0.210473 0.481873
0.213341 0.481037
0.216261 0.480205
0.219181 0.479451
0.222155 0.478698
0.225128 0.478018
0.228156 0.477338
0.231184 0.476725
0.234268 0.476112
0.237352 0.475561
0.240492 0.475009
0.243632 0.474513
0.24683 0.474015
0.250028 0.473568
0.253285 0.473119
0.256541 0.472716
0.259857 0.472313
0.263174 0.47195
0.266551 0.471585
0.269928 0.471261
0.273367 0.470934
0.276806 0.470643
0.280308 0.470345
0.28381 0.470074
0.287376 0.469794
0.290942 0.469539
0.294574 0.469277
0.298206 0.469037
0.301904 0.468791
0.305602 0.468563
0.309368 0.468327
0.313135 0.468107
0.31697 0.46788
0.320805 0.467666
0.324711 0.467444
0.328616 0.467233
0.332593 0.467014
0.336571 0.466804
0.340621 0.466585
0.344671 0.466374
0.348795 0.466151
0.35292 0.465935
0.35712 0.465707
0.36132 0.465486
0.365597 0.465251
0.369874 0.465021
0.37423 0.464774
0.378585 0.464533
0.383021 0.464273
0.387456 0.464019
0.391973 0.463743
0.39649 0.463471
0.401089 0.46318
0.405689 0.462894
0.410373 0.462585
0.415057 0.46228
0.419827 0.461939
0.424597 0.461604
0.429454 0.461243
0.434311 0.460887
0.439258 0.460508
0.444204 0.460134
0.449241 0.459706
0.454279 0.459286
0.459408 0.458827
0.464538 0.458375
0.469761 0.457904
0.474985 0.457437
0.480305 0.456929
0.485624 0.456427
0.491041 0.455846
0.496458 0.455274
0.501975 0.454607
0.507491 0.453948
0.513109 0.453309
0.518726 0.452671
0.524447 0.452063
0.530167 0.451455
0.535993 0.450682
0.541818 0.449921
0.547751 0.449036
0.553683 0.448159
0.559724 0.447278
0.565765 0.4464
0.571917 0.445357
0.578069 0.444319
0.584334 0.443274
0.590599 0.442227
0.596979 0.441367
0.603358 0.440528
0.609855 0.439394
0.616352 0.438272
0.622968 0.436815
0.629583 0.435335
0.636321 0.433935
0.643058 0.43252
0.649919 0.431242
0.656779 0.429995
0.663766 0.42855
0.670753 0.427127
0.677867 0.425445
0.684982 0.423739
0.692227 0.421993
0.699473 0.420231
0.706851 0.418397
0.714229 0.416557
0.721742 0.414611
0.729256 0.41266
0.736907 0.410591
0.744558 0.408513
0.75235 0.406316
0.760142 0.404107
0.768076 0.401779
0.776011 0.399435
0.784091 0.396971
0.792171 0.394486
0.800399 0.391881
0.808627 0.389251
0.817006 0.386501
0.825385 0.383721
0.833918 0.380822
0.842451 0.377886
0.85114 0.374836
0.85983 0.371741
0.868678 0.368536
0.877527 0.36528
0.886538 0.361919
0.895549 0.3585
0.904725 0.354982
0.913901 0.351398
0.923246 0.347726
0.93259 0.343978
0.942106 0.340153
0.951622 0.336243
0.961313 0.33227
0.971003 0.328202
0.980872 0.324088
0.99074 0.319868
1.00079 0.315619
1.01084 0.311255
1.02107 0.306883
1.03131 0.302384
1.04173 0.297901
1.05215 0.29328
1.06276 0.288699
1.07337 0.283972
1.08418 0.279309
1.09499 0.27449
1.10599 0.269762
1.117 0.264869
1.1282 0.260094
1.13941 0.255148
1.15082 0.250346
1.16224 0.245366
1.17386 0.240555
1.18548 0.235562
1.19731 0.230761
1.20915 0.225775
1.2212 0.221005
1.23325 0.216047
1.24553 0.211326
1.2578 0.206416
1.2703 0.201765
1.2828 0.196925
1.29552 0.192358
1.30825 0.187616
1.32121 0.183126
1.33417 0.178509
1.34737 0.174074
1.36057 0.169555
1.37401 0.165214
1.38745 0.160777
1.40114 0.156563
1.41483 0.152173
1.42877 0.148249
1.4427 0.144064
1.4569 0.140153
1.47109 0.135967
1.48555 0.132794
1.5 0.129478
1.50339 0.128483
1.50679 0.127488
1.5136 0.125541
1.52041 0.123593
1.52046 0.123581
1.5205 0.123568
1.52751 0.121782
1.53451 0.119996
1.53809 0.119129
1.54167 0.118261
1.54524 0.117482
1.54882 0.116703
1.55612 0.115221
1.56343 0.113738
1.56363 0.113699
1.56383 0.11366
1.57109 0.11214
1.57835 0.11062
1.58265 0.109733
1.58696 0.108846
1.59027 0.108128
1.59359 0.10741
1.60137 0.105779
1.60915 0.104142
1.61013 0.103942
1.61111 0.103742
1.61807 0.102346
1.62504 0.10095
1.6307 0.0998777
1.63636 0.0988059
1.63881 0.0983238
1.64127 0.0978417
1.64955 0.0963148
1.65784 0.0947602
1.66031 0.0943272
1.66279 0.0938941
1.66878 0.0928165
1.67476 0.0917388
1.68262 0.0904133
1.69048 0.0890877
1.69126 0.0889502
1.69205 0.0888128
1.70087 0.0873315
1.7097 0.0858444
1.7146 0.0850573
1.71951 0.0842702
1.72362 0.0835984
1.72772 0.0829266
1.73693 0.0814906
1.74613 0.0800417
1.74806 0.07975
1.75 0.0794584
1.75746 0.0783242
1.76493 0.0771901
1.77349 0.0759544
1.78205 0.0747187
1.78309 0.0745675
1.78412 0.0744164
1.79393 0.0730466
1.80373 0.07167
1.80976 0.0708693
1.81579 0.0700686
1.81977 0.0695342
1.82375 0.0689997
1.83397 0.0676985
1.8442 0.0663766
1.84777 0.0659384
1.85135 0.0655002
1.85821 0.0646486
1.86508 0.063797
1.87574 0.0625543
1.8864 0.0613042
1.88764 0.0611641
1.88889 0.061024
1.89853 0.0599236
1.90818 0.0588233
1.91837 0.0577229
1.92857 0.0566225
1.92949 0.0565219
1.93041 0.0564214
1.94177 0.0552455
1.95312 0.0540636
1.96186 0.0532173
1.97059 0.052371
1.97345 0.0520905
1.97632 0.05181
1.98816 0.0506907
2 0.049559
