0 1e-10
0.000963618 0.0028958
0.00192724 0.00554637
0.00290853 0.00483818
0.00388982 0.00443431
0.00488911 0.0037019
0.0058884 0.00314701
0.00690601 0.00261151
0.00792363 0.00208596
0.00895991 0.0017845
0.00999619 0.00139729
0.0110515 0.00125772
0.0121068 0.00103743
0.0131814 0.000982023
0.0142561 0.000893055
0.0153504 0.000868797
0.0164448 0.000841082
0.0175592 0.000828259
0.0186736 0.00082097
0.0198085 0.000814798
0.0209433 0.000818443
0.022099 0.000816684
0.0232547 0.000827356
0.0244316 0.000828997
0.0256084 0.000845628
0.0268069 0.00085008
0.0280054 0.000872187
0.0292258 0.000879762
0.0304462 0.000906786
0.0316891 0.000917827
0.0329319 0.000949574
0.0341975 0.000963554
0.0354631 0.000999462
0.036752 0.00101568
0.0380408 0.00105592
0.0393533 0.00107411
0.0406657 0.00112176
0.0420023 0.00114191
0.0433388 0.00120035
0.0446999 0.00122246
0.0460609 0.00129222
0.047447 0.00131584
0.048833 0.0013932
0.0502444 0.00141606
0.0516559 0.00149255
0.0530932 0.00151217
0.0545305 0.00158017
0.0559942 0.00159571
0.0574579 0.00165267
0.0589484 0.00166315
0.060439 0.00170873
0.0619568 0.00171295
0.0634747 0.00174601
0.0650204 0.00174418
0.0665661 0.0017634
0.0681402 0.0017558
0.0697143 0.0017594
0.0713172 0.00174713
0.0729201 0.00173787
0.0745524 0.0017213
0.0761848 0.00170328
0.077847 0.00168024
0.0795093 0.00164956
0.0812021 0.00162042
0.0828948 0.00157303
0.0846186 0.00154166
0.0863424 0.00148209
0.0880979 0.00145186
0.0898533 0.00138552
0.0916409 0.00135703
0.0934285 0.00128384
0.0952489 0.0012563
0.0970693 0.00117505
0.0989231 0.00114787
0.100777 0.00105886
0.102665 0.00103207
0.104552 0.00093811
0.106475 0.000912079
0.108397 0.00081987
0.110355 0.000795365
0.112313 0.000715474
0.114306 0.000694377
0.1163 0.00063351
0.11833 0.000616669
0.12036 0.000570079
0.122428 0.000555957
0.124495 0.000516339
0.1266 0.000504094
0.128705 0.000470502
0.130849 0.000460727
0.132993 0.000435433
0.135177 0.000427603
0.13736 0.000409241
0.139583 0.000402902
0.141806 0.000389163
0.14407 0.000384126
0.146334 0.000374309
0.14864 0.000369999
0.150946 0.000362817
0.153293 0.000359193
0.155641 0.000353731
0.158032 0.000350925
0.160423 0.000346341
0.162858 0.000344571
0.165293 0.000340871
0.167772 0.000339951
0.170252 0.000337402
0.172776 0.000336626
0.175301 0.000335342
0.177873 0.000334435
0.180444 0.00033377
0.183062 0.000333156
0.185681 0.000332528
0.188347 0.000332411
0.191013 0.000331933
0.193729 0.000332155
0.196444 0.000332016
0.199209 0.000332472
0.201974 0.000332671
0.20479 0.00033328
0.207606 0.000333788
0.210473 0.000334498
0.213341 0.000335211
0.216261 0.000336054
0.219181 0.00033687
0.222155 0.000337856
0.225128 0.00033878
0.228156 0.000339879
0.231184 0.000340927
0.234268 0.000342109
0.237352 0.000343268
0.240492 0.000344517
0.243632 0.000345764
0.24683 0.000347077
0.250028 0.000348392
0.253285 0.000349763
0.256541 0.000351136
0.259857 0.000352557
0.263174 0.000353973
0.266551 0.000355444
0.269928 0.000356897
0.273367 0.00035842
0.276806 0.000359913
0.280308 0.000361481
0.28381 0.000363017
0.287376 0.000364619
0.290942 0.000366191
0.294574 0.000367821
0.298206 0.000369424
0.301904 0.000371079
0.305602 0.000372706
0.309368 0.000374388
0.313135 0.000376038
0.31697 0.000377748
0.320805 0.000379421
0.324711 0.00038116
0.328616 0.000382857
0.332593 0.000384627
0.336571 0.000386351
0.340621 0.000388153
0.344671 0.000389904
0.348795 0.00039174
0.35292 0.000393522
0.35712 0.000395394
0.36132 0.000397207
0.365597 0.000399117
0.369874 0.000400966
0.37423 0.000402912
0.378585 0.000404795
0.383021 0.000406775
0.387456 0.000408691
0.391973 0.000410706
0.39649 0.000412655
0.401089 0.000414705
0.405689 0.000416687
0.410373 0.000418773
0.415057 0.000420789
0.419827 0.000422911
0.424597 0.000424961
0.429454 0.000427121
0.434311 0.000429207
0.439258 0.000431408
0.444204 0.000433532
0.449241 0.000435773
0.454279 0.000437936
0.459408 0.000440221
0.464538 0.000442424
0.469761 0.000444753
0.474985 0.000447
0.480305 0.000449371
0.485624 0.000451659
0.491041 0.000454079
0.496458 0.000456412
0.501975 0.00045888
0.507491 0.000461259
0.513109 0.000463776
0.518726 0.000466203
0.524447 0.000468769
0.530167 0.000471244
0.535993 0.000473865
0.541818 0.000476393
0.547751 0.000479067
0.553683 0.000481645
0.559724 0.000484381
0.565765 0.000487021
0.571917 0.000489809
0.578069 0.0004925
0.584334 0.000495356
0.590599 0.00049811
0.596979 0.000501027
0.603358 0.000503843
0.609855 0.000506824
0.616352 0.000509701
0.622968 0.000512758
0.629583 0.000515706
0.636321 0.000518837
0.643058 0.000521861
0.649919 0.000525061
0.656779 0.000528152
0.663766 0.000531434
0.670753 0.000534602
0.677867 0.000537974
0.684982 0.000541235
0.692227 0.000544673
0.699473 0.000547998
0.706851 0.000551541
0.714229 0.000554963
0.721742 0.000558602
0.729256 0.000562121
0.736907 0.000565849
0.744558 0.000569457
0.75235 0.000573295
0.760142 0.000577009
0.768076 0.00058095
0.776011 0.000584765
0.784091 0.000588824
0.792171 0.000592757
0.800399 0.000596925
0.808627 0.000600968
0.817006 0.000605254
0.825385 0.000609409
0.833918 0.000613839
0.842451 0.000618134
0.85114 0.000622674
0.85983 0.000627087
0.868678 0.000631775
0.877527 0.000636323
0.886538 0.000641153
0.895549 0.000645849
0.904725 0.000650818
0.913901 0.000655652
0.923246 0.000660766
0.93259 0.000665737
0.942106 0.000671029
0.951622 0.000676187
0.961313 0.000681599
0.971003 0.000686864
0.980872 0.000692497
0.99074 0.00069801
1.00079 0.000703688
1.01084 0.000709202
1.02107 0.000715251
1.03131 0.000721187
1.04173 0.000727109
1.05215 0.00073287
1.06276 0.000739354
1.07337 0.000745701
1.08418 0.000751903
1.09499 0.000758012
1.10599 0.000764764
1.117 0.000771315
1.1282 0.000778031
1.13941 0.000784675
1.15082 0.000791559
1.16224 0.000798288
1.17386 0.000805461
1.18548 0.000812485
1.19731 0.000819704
1.20915 0.000826848
1.2212 0.000834174
1.23325 0.000841351
1.24553 0.000848984
1.2578 0.000856478
1.2703 0.000864106
1.2828 0.000871649
1.29552 0.000879443
1.30825 0.000887111
1.32121 0.000895051
1.33417 0.000902859
1.34737 0.000910933
1.36057 0.000918911
1.37401 0.000927002
1.38745 0.000934996
1.40114 0.000943249
1.41483 0.000951382
1.42877 0.000959699
1.4427 0.000967901
1.4569 0.000982377
1.47109 0.000996515
1.48555 0.00099979
1.5 0.00100309
1.50339 0.00100426
1.50679 0.00100543
1.5136 0.00100743
1.52041 0.00100942
1.52046 0.00100944
1.5205 0.00100946
1.52751 0.00101245
1.53451 0.00101545
1.53809 0.00101685
1.54167 0.00101825
1.54524 0.00101987
1.54882 0.0010215
1.55612 0.00102458
1.56343 0.00102768
1.56363 0.00102776
1.56383 0.00102785
1.57109 0.00103139
1.57835 0.00103493
1.58265 0.00103689
1.58696 0.00103884
1.59027 0.00104054
1.59359 0.00104225
1.60137 0.001046
1.60915 0.00104989
1.61013 0.00105037
1.61111 0.00105085
1.61807 0.00105467
1.62504 0.00105848
1.6307 0.0010614
1.63636 0.00106433
1.63881 0.00106573
1.64127 0.00106713
1.64955 0.0010716
1.65784 0.00107641
1.66031 0.00107777
1.66279 0.00107914
1.66878 0.00108275
1.67476 0.00108637
1.68262 0.00109088
1.69048 0.0010954
1.69126 0.00109589
1.69205 0.00109638
1.70087 0.00110187
1.7097 0.00110746
1.7146 0.00111042
1.71951 0.00111338
1.72362 0.00111606
1.72772 0.00111874
1.73693 0.00112451
1.74613 0.00113052
1.74806 0.00113176
1.75 0.00113299
1.75746 0.00113811
1.76493 0.00114323
1.77349 0.00114888
1.78205 0.00115452
1.78309 0.00115525
1.78412 0.00115598
1.79393 0.00116297
1.80373 0.00117008
1.80976 0.00117429
1.81579 0.00117849
1.81977 0.00118145
1.82375 0.00118441
1.83397 0.00119173
1.8442 0.00119948
1.84777 0.00120207
1.85135 0.00120467
1.85821 0.00120996
1.86508 0.00121525
1.87574 0.00122311
1.8864 0.00123112
1.88764 0.00123203
1.88889 0.00123294
1.89853 0.00124041
1.90818 0.00124788
1.91837 0.00125584
1.92857 0.0012638
1.92949 0.00126456
1.93041 0.00126532
1.94177 0.00127206
1.95312 0.00127891
1.96186 0.0012883
1.97059 0.0012977
1.97345 0.00130087
1.97632 0.00130404
1.98816 0.00131245
2 0.00132087
