0 0.0723978
0.0012616 0.0724023
0.0025232 0.072406
0.00254642 0.0724061
0.00256965 0.0724061
0.00352477 0.072407
0.00447989 0.0724077
0.00483316 0.0724075
0.00518642 0.0724073
0.00649473 0.0723973
0.00780303 0.0723874
0.00782711 0.0723872
0.00785119 0.072387
0.00884167 0.0723745
0.00983216 0.0723621
0.0101985 0.072358
0.0105648 0.0723539
0.0119465 0.0723295
0.0133283 0.0723067
0.0147099 0.0722755
0.0160915 0.0722454
0.0161169 0.0722449
0.0161424 0.0722443
0.0171883 0.0722149
0.0182343 0.0721855
0.0186212 0.072175
0.0190081 0.0721645
0.0204672 0.0721143
0.0219263 0.0720654
0.0233854 0.0720058
0.0248444 0.0719483
0.0248713 0.0719473
0.0248981 0.0719463
0.0260027 0.0718936
0.0271073 0.0718412
0.0275159 0.0718238
0.0279244 0.0718063
0.0294653 0.0717229
0.0310063 0.0716463
0.0325754 0.0715514
0.0341446 0.0714675
0.0357425 0.0713614
0.0373405 0.0712724
0.0389677 0.0711573
0.040595 0.0710649
0.0422521 0.0709448
0.0439092 0.0708489
0.0455662 0.0707299
0.0472232 0.0706314
0.0472537 0.0706299
0.0472842 0.0706284
0.0485386 0.070541
0.0497931 0.0704549
0.0502571 0.0704316
0.0507211 0.0704083
0.052471 0.0702915
0.054221 0.0701917
0.056003 0.0700799
0.0577851 0.069982
0.0595998 0.0698789
0.0614146 0.0697853
0.0629797 0.0697085
0.0645449 0.0696333
0.0648277 0.0696203
0.0651106 0.0696073
0.0667385 0.0695415
0.0683663 0.0694728
0.0686204 0.0694612
0.0688745 0.0694496
0.0707563 0.0693896
0.0726381 0.0693137
0.0726727 0.0693121
0.0727073 0.0693104
0.074132 0.0692754
0.0755567 0.0692386
0.0760836 0.069212
0.0766105 0.0691854
0.0785979 0.0691469
0.0805853 0.0690664
0.0825725 0.0690325
0.0845598 0.0689477
0.0845964 0.0689454
0.0846329 0.0689431
0.0861374 0.0689162
0.0876419 0.0688854
0.0881984 0.0688455
0.0887548 0.0688057
0.0908536 0.0687613
0.0929523 0.0686466
0.0950896 0.0685908
0.0972268 0.0684614
0.0994033 0.0683916
0.10158 0.0682479
0.103796 0.0681612
0.106012 0.0680038
0.108269 0.0678982
0.110526 0.0677281
0.112825 0.0676037
0.115123 0.0674226
0.115755 0.0673839
0.116387 0.0673451
0.118096 0.0672404
0.119804 0.0670868
0.121866 0.0669452
0.123928 0.0667807
0.12425 0.0667485
0.124571 0.0667163
0.126999 0.0665331
0.129426 0.066317
0.131897 0.0661167
0.134369 0.0659014
0.136886 0.0656897
0.139403 0.0654758
0.141574 0.0652901
0.143745 0.065107
0.144137 0.0650748
0.14453 0.0650427
0.146788 0.0648444
0.149045 0.0646552
0.149398 0.0646282
0.14975 0.0646013
0.152408 0.0643673
0.155066 0.064162
0.157773 0.06394
0.16048 0.0637469
0.163187 0.0635551
0.165894 0.0633717
0.165943 0.0633684
0.165993 0.0633652
0.168042 0.063241
0.170091 0.0631152
0.170849 0.0630576
0.171607 0.063
0.174466 0.0628374
0.177324 0.0626147
0.180235 0.0624468
0.183146 0.0621869
0.186111 0.0620134
0.189075 0.0617192
0.192094 0.0615355
0.195113 0.0612067
0.198187 0.0609975
0.201261 0.060629
0.204335 0.0603814
0.207409 0.0599846
0.207465 0.059975
0.207522 0.0599655
0.209849 0.0597417
0.212176 0.0595084
0.213037 0.0593546
0.213898 0.0592009
0.217144 0.0588348
0.22039 0.0583247
0.223696 0.0578946
0.227002 0.0573266
0.230308 0.0568367
0.233614 0.0562251
0.233674 0.056212
0.233735 0.0561989
0.236238 0.0557813
0.238741 0.0553566
0.239666 0.0551493
0.240592 0.054942
0.244083 0.0542869
0.247574 0.0535568
0.251129 0.0527853
0.254685 0.0519966
0.258305 0.0510299
0.261925 0.0501083
0.265612 0.0488252
0.269299 0.0476461
0.272986 0.0459759
0.276672 0.0444442
0.27674 0.0444181
0.276808 0.044392
0.279599 0.042828
0.28239 0.0412732
0.283422 0.0407636
0.284454 0.0402541
0.288348 0.0377401
0.292241 0.0353307
0.296134 0.0326207
0.300028 0.0299493
0.300099 0.0299007
0.300171 0.0298521
0.303118 0.0277362
0.306066 0.0256171
0.307156 0.0248102
0.308246 0.0240034
0.312283 0.0210566
0.316321 0.0179513
0.316395 0.0178917
0.316469 0.0178322
0.319526 0.0155655
0.322582 0.0132803
0.323713 0.0123036
0.324843 0.0113269
0.329107 0.00813895
0.333371 0.0045175
0.337713 0.00127032
0.342055 -0.00255357
0.346476 -0.0058407
0.350898 -0.0098475
0.355319 -0.0130733
0.359741 -0.0171107
0.359822 -0.0171973
0.359903 -0.0172838
0.364489 -0.0204959
0.369074 -0.0246979
0.372483 -0.0269448
0.375891 -0.0292567
0.377152 -0.0305734
0.378413 -0.03189
0.383168 -0.0347477
0.387923 -0.0385822
0.392765 -0.0410785
0.397608 -0.0443849
0.402539 -0.0463537
0.40747 -0.0488809
0.412401 -0.0501546
0.417331 -0.0516163
0.417422 -0.051646
0.417513 -0.0516757
0.422626 -0.0521807
0.42774 -0.0523939
0.431542 -0.0520518
0.435343 -0.0516612
0.436749 -0.0511726
0.438155 -0.050684
0.443458 -0.0491306
0.448761 -0.0464517
0.454063 -0.0438945
0.459366 -0.0400716
0.459464 -0.0399821
0.459561 -0.0398927
0.463576 -0.0373105
0.46759 -0.0346396
0.469075 -0.0330221
0.47056 -0.0314045
0.47616 -0.027162
0.48176 -0.0216133
0.487463 -0.0169776
0.493165 -0.0112689
0.498973 -0.0065869
0.50478 -0.00112708
0.510694 0.00323728
0.516608 0.00809466
0.522522 0.0117729
0.528435 0.0157292
0.528544 0.0158062
0.528653 0.0158833
0.534786 0.0189728
0.540918 0.0222824
0.545478 0.0241872
0.550037 0.0261054
0.551723 0.0269105
0.553409 0.0277155
0.559654 0.0299635
0.565899 0.032396
0.566014 0.0324435
0.566129 0.0324911
0.572605 0.0345193
0.579082 0.0366428
0.583896 0.0379817
0.588711 0.0393126
0.590492 0.0397483
0.592272 0.0401841
0.598989 0.0418104
0.605705 0.0430808
0.612421 0.0443694
0.619137 0.0451736
0.61926 0.0451811
0.619384 0.0451886
0.61951 0.0452044
0.619636 0.0452202
0.626475 0.0460768
0.633314 0.0463569
0.638235 0.0465479
0.643156 0.0467389
0.643412 0.0467489
0.643669 0.0467287
0.645584 0.0465783
0.647499 0.0464278
0.654722 0.0461066
0.661944 0.0454728
0.669299 0.0446715
0.676655 0.0437359
0.684009 0.0426033
0.691364 0.0415057
0.691499 0.041486
0.691635 0.0414663
0.699262 0.0400779
0.70689 0.0388297
0.713608 0.0373823
0.720327 0.0360065
0.721376 0.0358121
0.722424 0.0356178
0.730334 0.0335425
0.738244 0.0316022
0.745066 0.0296918
0.751888 0.027858
0.753121 0.0275562
0.754354 0.0272543
0.761449 0.0256366
0.768544 0.0241608
0.769652 0.0239709
0.770759 0.023781
0.779112 0.0229233
0.787465 0.0224511
0.795971 0.0224353
0.804478 0.0226818
0.812983 0.0225582
0.821489 0.0224593
0.821646 0.0224578
0.821802 0.0224564
0.828242 0.0219009
0.834681 0.021341
0.837063 0.021102
0.839445 0.020863
0.847053 0.0197977
0.85466 0.0187094
0.856035 0.0185038
0.857411 0.0182983
0.866558 0.0168817
0.875706 0.0154585
0.885021 0.01416
0.894337 0.0128937
0.901262 0.0121768
0.908187 0.0114641
0.910748 0.0112297
0.91331 0.0109953
0.92297 0.010364
0.93263 0.00983835
0.940962 0.00949934
0.949294 0.00922431
0.950799 0.00919932
0.952305 0.00917433
0.960971 0.00884211
0.969636 0.00861107
0.970989 0.00860384
0.972341 0.00859661
0.980981 0.00821123
0.989621 0.00794283
0.991183 0.0079395
0.992745 0.00793617
1.00173 0.00757736
1.01072 0.00733032
1.01212 0.00732361
1.01352 0.0073169
1.0241 0.00703404
1.03468 0.00684556
1.04545 0.00672955
1.05623 0.00657192
1.0672 0.00655296
1.07817 0.00639787
1.08934 0.00636952
1.10051 0.00621305
1.11189 0.0061271
1.12327 0.00596859
1.13485 0.00584231
1.14644 0.00566598
1.15824 0.00552258
1.17004 0.0053089
1.18205 0.00510536
1.19407 0.0048089
1.2063 0.00453797
1.21854 0.0041532
1.23077 0.00385248
1.243 0.00343567
1.24323 0.00342625
1.24345 0.00341683
1.25272 0.00318122
1.26198 0.00293932
1.2654 0.00280523
1.26883 0.00267114
1.28152 0.00234076
1.2942 0.00193464
1.29444 0.00192602
1.29467 0.0019174
1.30428 0.00165318
1.31388 0.00138465
1.31743 0.0012548
1.32099 0.00112496
1.33439 0.000747278
1.34778 0.000327056
1.35934 7.35346e-06
1.3709 -0.000320626
1.37298 -0.000383103
1.37507 -0.00044558
1.38709 -0.000767556
1.39911 -0.00109136
1.40099 -0.00114241
1.40286 -0.00119347
1.41701 -0.00155819
1.43116 -0.00191672
1.44531 -0.00226411
1.45946 -0.00259894
1.45972 -0.00260492
1.45998 -0.00261089
1.47069 -0.00285782
1.4814 -0.00310351
1.48537 -0.00318551
1.48933 -0.00326751
1.50427 -0.00358565
1.51921 -0.00388122
1.53443 -0.00417434
1.54965 -0.00444623
1.56486 -0.00470003
1.58008 -0.00493893
1.58036 -0.0049431
1.58064 -0.00494727
1.59216 -0.00511964
1.60368 -0.00529097
1.60794 -0.00534697
1.6122 -0.00540297
1.62827 -0.0056215
1.64434 -0.00582092
1.6607 -0.00600972
1.67707 -0.00618373
1.69373 -0.00634745
1.7104 -0.00649962
1.72737 -0.006643
1.74434 -0.00677692
1.76162 -0.00690541
1.7789 -0.00702489
1.7965 -0.00714112
1.81409 -0.00724867
1.83202 -0.00735482
1.84994 -0.00745272
1.86819 -0.00755072
1.88644 -0.007641
1.90502 -0.00773226
1.9236 -0.00781638
1.94219 -0.00790081
1.96077 -0.00797917
1.96111 -0.00798052
1.96146 -0.00798187
1.97552 -0.0080388
1.98959 -0.00809538
1.9948 -0.00811383
2 -0.00813229
