0 0.0294057
0.00128482 0.0294148
0.00256965 0.0294116
0.00387803 0.029431
0.00518642 0.0294359
0.00651881 0.029458
0.00785119 0.0294753
0.00920802 0.0295007
0.0105648 0.0295195
0.0119465 0.0295468
0.0133283 0.0295658
0.0147353 0.0295931
0.0161424 0.0296092
0.0175752 0.0296346
0.0190081 0.0296439
0.0204672 0.0296646
0.0219263 0.0296622
0.0234122 0.0296731
0.0248981 0.0296532
0.0264113 0.0296499
0.0279244 0.0296067
0.0294653 0.0295849
0.0310063 0.029513
0.0325754 0.0294701
0.0341446 0.0293684
0.0357425 0.0293039
0.0373405 0.0291743
0.0389677 0.0290889
0.040595 0.0289314
0.0422521 0.0288257
0.0439092 0.0286387
0.0455967 0.0285139
0.0472842 0.0282985
0.0490026 0.0281536
0.0507211 0.0279117
0.052471 0.0277417
0.054221 0.0274725
0.056003 0.0272728
0.0577851 0.0269747
0.0595998 0.0267478
0.0614146 0.0264208
0.0632626 0.0261646
0.0651106 0.0258056
0.0669925 0.0255115
0.0688745 0.0251173
0.0707909 0.0247837
0.0727073 0.0243547
0.0746589 0.0239841
0.0766105 0.0235188
0.0776921 0.0232974
0.0787737 0.023076
0.0796795 0.0228426
0.0805853 0.0226092
0.0816867 0.0223665
0.0827881 0.0221237
0.0837105 0.0218733
0.0846329 0.0216228
0.0866939 0.0211388
0.0887548 0.0205636
0.0908536 0.0200508
0.0929523 0.0194476
0.0950896 0.0189144
0.0972268 0.0182907
0.0994033 0.0177448
0.10158 0.0171026
0.103796 0.0165553
0.106012 0.0158952
0.108269 0.0153608
0.110526 0.0146934
0.112825 0.014189
0.115123 0.0135343
0.116397 0.0132877
0.117671 0.0130411
0.118738 0.0127522
0.119804 0.0124633
0.122188 0.0120907
0.124571 0.0115355
0.126999 0.011266
0.129426 0.010799
0.131897 0.0106594
0.134369 0.0103065
0.136886 0.0103298
0.139403 0.0101145
0.140798 0.0102252
0.142193 0.010336
0.143362 0.0102999
0.14453 0.0102638
0.14714 0.0106587
0.14975 0.0107843
0.152408 0.011366
0.155066 0.0116637
0.157773 0.0124006
0.16048 0.0128499
0.163237 0.0137065
0.165993 0.0142985
0.1688 0.0152512
0.171607 0.0159744
0.173163 0.0165354
0.174719 0.0170963
0.176022 0.0174669
0.177324 0.0178375
0.180235 0.0189154
0.183146 0.0198249
0.186111 0.0209086
0.189075 0.0218586
0.192094 0.0229091
0.195113 0.023875
0.198187 0.024861
0.201261 0.0258291
0.204391 0.0267336
0.207522 0.0276902
0.21071 0.0285013
0.213898 0.0294306
0.217144 0.030145
0.22039 0.0310334
0.221492 0.03124
0.222594 0.0314467
0.224798 0.0319181
0.227002 0.0324898
0.230369 0.0330089
0.233735 0.0337782
0.237164 0.0341865
0.240592 0.0348645
0.244083 0.0351568
0.247574 0.0357224
0.249509 0.0358189
0.251444 0.0359153
0.253064 0.0361302
0.254685 0.0363451
0.258305 0.0364078
0.261925 0.0367304
0.265612 0.0366759
0.269299 0.0368755
0.273053 0.0367073
0.276808 0.0367885
0.280631 0.0365182
0.284454 0.0364892
0.288348 0.036121
0.292241 0.0359858
0.296206 0.0355426
0.300171 0.0353292
0.304208 0.0348317
0.308246 0.0345668
0.310484 0.0342657
0.312721 0.0339647
0.314595 0.0338317
0.316469 0.0336988
0.320656 0.0330952
0.324843 0.0327403
0.329107 0.0320889
0.333371 0.0317041
0.337713 0.0310072
0.342055 0.030595
0.346476 0.0298562
0.350898 0.0294158
0.355401 0.0286373
0.359903 0.028169
0.364489 0.0273548
0.369074 0.0268587
0.373744 0.0260226
0.378413 0.0254982
0.383168 0.0246604
0.387923 0.0241075
0.390558 0.0236579
0.393194 0.0232083
0.395401 0.0229564
0.397608 0.0227045
0.402539 0.0219008
0.40747 0.0213104
0.412491 0.0205422
0.417513 0.0199514
0.422626 0.019227
0.42774 0.0186552
0.432948 0.0179956
0.438155 0.0174717
0.443458 0.0169266
0.448761 0.0164819
0.454161 0.0160972
0.459561 0.015765
0.46506 0.0155323
0.47056 0.0153276
0.473607 0.0152791
0.476655 0.0152306
0.479207 0.015179
0.48176 0.0151274
0.487463 0.0151918
0.493165 0.0150889
0.498973 0.0152248
0.50478 0.0149824
0.510694 0.0149964
0.516608 0.0144184
0.52263 0.014085
0.528653 0.0130066
0.53199 0.0125349
0.535328 0.0120631
0.538123 0.011268
0.540918 0.0104729
0.547164 0.00902077
0.553409 0.00682494
0.55687 0.00582901
0.560331 0.00483309
0.56323 0.00369217
0.566129 0.00255124
0.572605 0.000633027
0.579082 -0.00180996
0.585677 -0.00374151
0.592272 -0.0061852
0.598989 -0.00831442
0.605705 -0.010874
0.612544 -0.0134615
0.619384 -0.0162799
0.626349 -0.0194575
0.633314 -0.0226213
0.640406 -0.0262805
0.647499 -0.0297514
0.654722 -0.0335343
0.661944 -0.037112
0.669299 -0.0405265
0.676655 -0.0438596
0.684145 -0.0463979
0.691635 -0.0490496
0.697187 -0.049928
0.702739 -0.0509014
0.704814 -0.0513002
0.70689 -0.051699
0.711117 -0.0514454
0.715344 -0.0511919
0.718884 -0.0510894
0.722424 -0.0509869
0.730334 -0.0487549
0.738244 -0.0465334
0.746299 -0.0427577
0.754354 -0.0385426
0.762556 -0.0336523
0.770759 -0.02776
0.779112 -0.0228048
0.787465 -0.0162353
0.795971 -0.0128444
0.804478 -0.00717774
0.81314 -0.00607227
0.821802 -0.00236926
0.830623 -0.00233955
0.839445 -0.000698469
0.848428 -2.54289e-05
0.857411 0.000464216
0.866558 0.00203365
0.875706 0.00235787
0.885021 0.00403387
0.894337 0.00418635
0.903823 0.00574744
0.91331 0.0058604
0.92297 0.00772956
0.93263 0.00833446
0.942468 0.0105196
0.952305 0.0115338
0.962323 0.0134374
0.972341 0.0142476
0.982543 0.0152816
0.992745 0.0154763
1.00313 0.0155843
1.01352 0.015263
1.0241 0.0148088
1.03468 0.0142371
1.04545 0.0135246
1.05623 0.0128325
1.0672 0.0119158
1.07817 0.0111038
1.08934 0.0101625
1.10051 0.00929627
1.11189 0.00860668
1.12327 0.00785524
1.13485 0.0073564
1.14644 0.00673665
1.15824 0.00617667
1.17004 0.00548475
1.18205 0.00476168
1.19407 0.00394437
1.2063 0.00313289
1.21854 0.00224142
1.23099 0.00135968
1.24345 0.000413651
1.25614 -0.000576575
1.26883 -0.00147565
1.28175 -0.00245754
1.29467 -0.00319076
1.30783 -0.00399783
1.32099 -0.00453332
1.33439 -0.00509318
1.34778 -0.00550023
1.36143 -0.00581912
1.37507 -0.0061027
1.38897 -0.00626207
1.40286 -0.00642481
1.41701 -0.00648554
1.43116 -0.00647607
1.44557 -0.00647392
1.45998 -0.00622059
1.47466 -0.0062559
1.48933 -0.00589547
1.50427 -0.00582682
1.51921 -0.00538576
1.53443 -0.00490942
1.54965 -0.00423591
1.56514 -0.00336686
1.58064 -0.00253961
1.59642 -0.0018845
1.6122 -0.00127976
1.62827 -0.000809429
1.64434 -0.000490462
1.6607 0.00010021
1.67707 0.000416591
1.69373 0.00090586
1.7104 0.00122096
1.72737 0.00146693
1.74434 0.00155522
1.76162 0.00156425
1.7789 0.0014555
1.7965 0.00137048
1.81409 0.00120963
1.83202 0.00107434
1.84994 0.000881801
1.86819 0.000749781
1.88644 0.000566445
1.90502 0.000440755
1.9236 0.000274219
1.94253 0.000156737
1.96146 8.04728e-06
1.98073 -9.72075e-05
2 -0.000225123
