0 1e-10
0.000204505 0.000440442
0.00040901 0.000880885
0.00148933 0.00347482
0.00256965 0.00606876
0.00387803 0.00594433
0.00518642 0.00580203
0.00651881 0.00569356
0.00785119 0.00556267
0.00920802 0.00545843
0.0105648 0.00533102
0.0119465 0.00521854
0.0133283 0.00508502
0.0147353 0.00495595
0.0161424 0.00480909
0.0175752 0.00465825
0.0190081 0.00449314
0.0204672 0.00431752
0.0219263 0.0041318
0.0234122 0.00393235
0.0248981 0.00372728
0.0264113 0.00350867
0.0279244 0.00328909
0.0294653 0.00305888
0.0310063 0.00283195
0.0325754 0.0025989
0.0341446 0.00237207
0.0343989 0.00233352
0.0346533 0.00229496
0.0359969 0.00211072
0.0373405 0.00192647
0.0389677 0.00171869
0.040595 0.00151712
0.0408587 0.0014877
0.0411225 0.00145828
0.0425158 0.00131251
0.0439092 0.00116674
0.0455967 0.00102866
0.0472842 0.000892397
0.0490026 0.000795849
0.0507211 0.00070093
0.052471 0.000641176
0.054221 0.000583656
0.0545046 0.000577609
0.0547883 0.000571562
0.0562867 0.000546921
0.0577851 0.000522279
0.0595998 0.000507926
0.0614146 0.000496585
0.0632626 0.000491264
0.0651106 0.00048852
0.0657097 0.00048692
0.0663088 0.000486929
0.0675916 0.000486949
0.0688745 0.000486968
0.0699852 0.000486411
0.0710959 0.000486453
0.0719016 0.000486484
0.0727073 0.000486515
0.0746589 0.000485682
0.0766105 0.000484565
0.0785979 0.000483019
0.0805853 0.000480616
0.0809074 0.000480617
0.0812295 0.000480618
0.0829312 0.000478351
0.0846329 0.000476085
0.0866939 0.000474682
0.0887548 0.000473022
0.0908536 0.000472392
0.0929523 0.000472288
0.0950896 0.000472866
0.0972268 0.000474671
0.0994033 0.000477584
0.10158 0.000482463
0.103796 0.000489295
0.106012 0.000498842
0.108269 0.000511401
0.110526 0.000527298
0.112825 0.000547959
0.115123 0.00057258
0.116346 0.000586507
0.117569 0.000605161
0.118687 0.000622209
0.119804 0.000639257
0.122188 0.000680105
0.124571 0.000726191
0.126999 0.000772453
0.129426 0.000823449
0.131897 0.000866934
0.134369 0.000912789
0.136886 0.000946041
0.139403 0.000977774
0.139539 0.000979373
0.139675 0.000980973
0.142103 0.000997189
0.14453 0.00100984
0.146043 0.00101371
0.147555 0.00100964
0.148653 0.00100669
0.14975 0.00100374
0.152408 0.000990904
0.155066 0.000969929
0.157773 0.000950377
0.16048 0.000924323
0.163237 0.000902136
0.165993 0.000875161
0.1688 0.000853397
0.171607 0.000828396
0.174466 0.000808232
0.177324 0.000786197
0.177788 0.000783662
0.178251 0.000781127
0.180699 0.000765513
0.183146 0.000749899
0.186111 0.000734871
0.189075 0.000719763
0.192094 0.000707327
0.195113 0.000695278
0.198187 0.000685029
0.201261 0.000675304
0.201759 0.000673795
0.202257 0.000672287
0.20489 0.000666153
0.207522 0.000660018
0.21071 0.000654647
0.213898 0.000650348
0.217144 0.000647551
0.22039 0.000646184
0.223696 0.000646234
0.227002 0.00064814
0.230369 0.000651189
0.233735 0.000656462
0.234281 0.000656481
0.234827 0.000656501
0.237709 0.000663042
0.240592 0.000669583
0.244083 0.000676683
0.247574 0.00068648
0.250563 0.000693149
0.253553 0.000702846
0.254119 0.000704682
0.254685 0.000706518
0.255261 0.000706873
0.255837 0.000707228
0.258881 0.000717968
0.261925 0.000728708
0.265612 0.000738384
0.269299 0.000751479
0.273053 0.00076074
0.276808 0.00077301
0.280631 0.000781165
0.284454 0.000791729
0.288348 0.00079752
0.292241 0.000805112
0.296206 0.000807844
0.300171 0.000811593
0.300814 0.000811663
0.301456 0.000811734
0.304851 0.000811438
0.308246 0.000811142
0.312358 0.00080755
0.316469 0.000801785
0.320656 0.000793819
0.324843 0.000780565
0.329107 0.000771654
0.333371 0.0007526
0.337713 0.000751199
0.342055 0.000733213
0.346476 0.000749667
0.350898 0.000740915
0.355401 0.000780616
0.359903 0.000788976
0.364489 0.000845061
0.369074 0.000871926
0.373744 0.000936757
0.378413 0.000981201
0.383168 0.0010573
0.387923 0.00112759
0.391995 0.00119168
0.396066 0.00126545
0.396837 0.00127942
0.397608 0.00129339
0.398393 0.00129525
0.399177 0.00129711
0.403324 0.00135837
0.40747 0.00141962
0.412491 0.00143627
0.417513 0.0014764
0.422626 0.00146226
0.42774 0.00147188
0.432948 0.00143866
0.438155 0.00142596
0.443458 0.00138734
0.448761 0.00136315
0.454161 0.00132654
0.459561 0.00129836
0.46506 0.00126635
0.47056 0.00123813
0.47616 0.00121465
0.48176 0.00119257
0.487463 0.00117851
0.493165 0.00116577
0.49409 0.00116355
0.495014 0.00116132
0.499897 0.00115498
0.50478 0.00114863
0.510694 0.00113966
0.516608 0.00113349
0.52263 0.00112494
0.528653 0.00111891
0.534786 0.0011128
0.540918 0.00110822
0.547164 0.00110665
0.553409 0.00110556
0.559769 0.00111064
0.566129 0.00111359
0.56716 0.00111795
0.568191 0.00112231
0.573636 0.00113035
0.579082 0.00113839
0.585677 0.00116559
0.592272 0.00118422
0.598989 0.00121859
0.605705 0.00124357
0.612544 0.00127684
0.619384 0.00130367
0.626349 0.00133036
0.633314 0.00135637
0.640406 0.00137855
0.647499 0.001404
0.654722 0.00143645
0.661944 0.00147291
0.669299 0.0015373
0.676655 0.00160892
0.684145 0.00171527
0.691635 0.0018366
0.699262 0.0019205
0.70689 0.0020201
0.714657 0.00196265
0.722424 0.00190591
0.730334 0.0018017
0.738244 0.00169182
0.746299 0.00167004
0.754354 0.00164256
0.762556 0.00164928
0.770759 0.00164773
0.779112 0.00163907
0.787465 0.00162496
0.795971 0.00158541
0.804478 0.00154044
0.81314 0.00147388
0.821802 0.00140281
0.830623 0.001334
0.839445 0.00126481
0.848428 0.00121471
0.857411 0.00116769
0.858867 0.00116042
0.860323 0.00115315
0.868014 0.00112123
0.875706 0.00108931
0.885021 0.00103399
0.894337 0.000977817
0.895847 0.000966281
0.897357 0.000954744
0.905333 0.000883022
0.91331 0.0008113
0.92297 0.000712099
0.93263 0.00060679
0.942468 0.000520281
0.952305 0.000430727
0.962323 0.000378985
0.972341 0.000329151
0.982543 0.000303146
0.992745 0.000280574
0.994398 0.000277491
0.996052 0.000274407
1.00479 0.000266492
1.01352 0.000258577
1.0241 0.000254092
1.03468 0.000251903
1.04545 0.000251621
1.05623 0.000253527
1.0672 0.000248259
1.07817 0.00024633
1.08934 0.00022836
1.10051 0.000213141
1.11189 0.000196533
1.12327 0.000180412
1.13485 0.000176207
1.14644 0.000171679
1.15824 0.00017452
1.17004 0.0001769
1.18205 0.000183156
1.19407 0.000188994
1.2063 0.000194793
1.21854 0.000200232
1.23099 0.000203646
1.24345 0.000206282
1.25614 0.000207372
1.26883 0.000206674
1.28175 0.000206042
1.29467 0.000202849
1.30783 0.000202832
1.32099 0.000200652
1.33439 0.000200403
1.34778 0.000198462
1.36143 0.000191144
1.37507 0.000182594
1.38897 0.000163219
1.40286 0.000144409
1.41701 0.000123053
1.43116 0.000103549
1.44557 9.31321e-05
1.45998 8.36389e-05
1.47466 8.16301e-05
1.48933 7.95788e-05
1.50427 7.9545e-05
1.51921 7.95297e-05
1.53443 8.01456e-05
1.54965 8.07466e-05
1.56514 8.32248e-05
1.58064 8.53067e-05
1.59642 9.04057e-05
1.6122 9.48308e-05
1.62827 9.86095e-05
1.64434 0.000102052
1.6607 9.51352e-05
1.67707 8.85872e-05
1.69373 7.26585e-05
1.7104 5.73812e-05
1.72737 4.61877e-05
1.74434 3.53538e-05
1.76162 3.17599e-05
1.7789 2.82456e-05
1.7965 2.70403e-05
1.81409 2.58437e-05
1.83202 2.54026e-05
1.84994 2.49364e-05
1.86819 2.47701e-05
1.88644 2.45731e-05
1.90502 2.4574e-05
1.9236 2.45507e-05
1.94253 2.46221e-05
1.96146 2.46809e-05
1.98073 2.47508e-05
2 2.48162e-05
