0 1e-10
0.00128482 0.00662849
0.00256965 0.0130225
0.00275177 0.0129655
0.0029339 0.0129085
0.00406016 0.0125811
0.00518642 0.01226
0.0053027 0.0122398
0.00541897 0.0122195
0.00616084 0.0120787
0.0069027 0.0119261
0.00737695 0.0118286
0.00785119 0.0117311
0.00864142 0.0116053
0.00943164 0.0114483
0.00999824 0.0113357
0.0105648 0.0112232
0.0119465 0.0109089
0.0133283 0.0105721
0.0135241 0.0105083
0.01372 0.0104444
0.0149312 0.0100574
0.0161424 0.0096723
0.0162674 0.0096147
0.0163924 0.0095571
0.0177003 0.00901332
0.0190081 0.00849529
0.0199478 0.00799037
0.0208876 0.00756261
0.021407 0.00732621
0.0219263 0.0070898
0.0234122 0.00627535
0.0248981 0.00555851
0.0250828 0.00544716
0.0252676 0.00533581
0.026596 0.0046702
0.0279244 0.00404678
0.0294653 0.0033567
0.0310063 0.00272976
0.0325754 0.00223253
0.0341446 0.00175618
0.0357425 0.00146361
0.0373405 0.00115548
0.0384939 0.00106025
0.0396473 0.00093627
0.0401211 0.000885332
0.040595 0.000834395
0.0415601 0.00080509
0.0425252 0.000750921
0.0432172 0.00071208
0.0439092 0.000673239
0.0455967 0.000641277
0.0472842 0.000591864
0.0490026 0.000578044
0.0507211 0.00055166
0.052471 0.000548072
0.054221 0.000534197
0.0553687 0.000538191
0.0565165 0.000533612
0.0571508 0.000531081
0.0577851 0.000528551
0.0595998 0.000532071
0.0614146 0.000529531
0.0616565 0.000530704
0.0618984 0.000531877
0.0635045 0.000534156
0.0651106 0.000534881
0.0668694 0.000539522
0.0686281 0.000542453
0.0687513 0.000542658
0.0688745 0.000542863
0.0690417 0.00054336
0.069209 0.000543858
0.0709581 0.000548516
0.0727073 0.000552935
0.0746589 0.000559412
0.0766105 0.000565605
0.0785979 0.000573637
0.0805853 0.000580945
0.0826091 0.000590756
0.0846329 0.000598921
0.0866939 0.000611642
0.0887548 0.000620603
0.0889739 0.000623372
0.089193 0.00062614
0.0910727 0.000639224
0.0929523 0.000648311
0.0932132 0.000652611
0.0934741 0.000656912
0.0945897 0.000667862
0.0957054 0.000673852
0.0964661 0.000677937
0.0972268 0.000682022
0.0984944 0.000701699
0.099762 0.000709058
0.100671 0.000714335
0.10158 0.000719612
0.103796 0.000746191
0.106012 0.000760161
0.108269 0.000786495
0.110526 0.000801609
0.112007 0.000818284
0.113487 0.000827516
0.114305 0.000832618
0.115123 0.00083772
0.11582 0.000843437
0.116517 0.000848094
0.11816 0.000856359
0.119804 0.000864625
0.12191 0.000872336
0.124016 0.000880666
0.124294 0.000881764
0.124571 0.000882862
0.125985 0.00088113
0.127399 0.000886107
0.128412 0.000889675
0.129426 0.000893243
0.131897 0.000889963
0.134369 0.00089824
0.13542 0.000887906
0.136471 0.000889171
0.137937 0.000892431
0.139403 0.000895691
0.140136 0.000885982
0.140868 0.000880503
0.142699 0.000881701
0.14453 0.000882899
0.146985 0.000865938
0.149441 0.000866526
0.149595 0.000866564
0.14975 0.000866601
0.151298 0.000851103
0.152846 0.000851665
0.153956 0.000852068
0.155066 0.000852471
0.157773 0.000839067
0.16048 0.000838415
0.163237 0.000826253
0.165993 0.000824377
0.166384 0.000821571
0.166775 0.000818765
0.167755 0.000815044
0.168734 0.000814637
0.170171 0.00081404
0.171607 0.000813444
0.174466 0.000805116
0.177324 0.00080334
0.180235 0.000795442
0.183146 0.000792292
0.186111 0.000784932
0.189075 0.000780714
0.192094 0.000773907
0.195113 0.00076896
0.198187 0.000763098
0.201261 0.000758487
0.203277 0.000754853
0.205293 0.000751976
0.206407 0.000750386
0.207522 0.000748796
0.209378 0.000745842
0.211235 0.000742942
0.212566 0.000740863
0.213898 0.000738783
0.217144 0.000733735
0.22039 0.000728038
0.220563 0.000727869
0.220735 0.0007277
0.223869 0.000723114
0.227002 0.000717647
0.230017 0.000714613
0.233032 0.000710097
0.233384 0.00070957
0.233735 0.000709044
0.237164 0.000706975
0.240592 0.000703367
0.244083 0.000703281
0.247574 0.00070193
0.250199 0.000703522
0.252823 0.000704086
0.253754 0.000704286
0.254685 0.000704485
0.255 0.000704888
0.255316 0.00070529
0.258621 0.000708129
0.261925 0.000710368
0.2643 0.000714108
0.266674 0.00071688
0.267987 0.000718412
0.269299 0.000719944
0.271486 0.000724405
0.273672 0.000728206
0.27524 0.000730932
0.276808 0.000733658
0.280631 0.000742453
0.284454 0.000751196
0.286962 0.000757548
0.28947 0.000764944
0.290855 0.000769031
0.292241 0.000773118
0.296206 0.000786174
0.300171 0.000802342
0.304208 0.000817855
0.308246 0.000839266
0.310641 0.000844713
0.313035 0.00085811
0.314752 0.000867716
0.316469 0.000877322
0.320656 0.000889116
0.324843 0.000908803
0.325288 0.000908792
0.325733 0.000908781
0.329552 0.000918078
0.333371 0.000930893
0.335127 0.000930103
0.336883 0.000933201
0.339469 0.000938542
0.342055 0.000943883
0.346476 0.000944807
0.350898 0.000949111
0.355401 0.000948423
0.359903 0.000949369
0.364489 0.000946951
0.369074 0.000942794
0.373744 0.0009365
0.378413 0.00092563
0.383168 0.000913855
0.387923 0.000896419
0.392765 0.000879945
0.397608 0.000858778
0.402539 0.000837108
0.40747 0.000811906
0.412491 0.000786633
0.417513 0.000757771
0.422626 0.00073696
0.42774 0.00071322
0.428465 0.000712115
0.42919 0.000711009
0.433672 0.000699906
0.438155 0.000687717
0.438618 0.000687906
0.43908 0.000688095
0.443921 0.00068557
0.448761 0.000681068
0.454161 0.000689157
0.459561 0.000692897
0.463103 0.000704818
0.466645 0.000711317
0.468602 0.000714908
0.47056 0.000718499
0.473821 0.000730051
0.477083 0.000737534
0.479421 0.000742898
0.48176 0.000748263
0.483647 0.000753706
0.485534 0.000758888
0.489349 0.000769058
0.493165 0.000779228
0.498367 0.000791269
0.503568 0.000806312
0.504174 0.000808065
0.50478 0.000809819
0.510694 0.000816236
0.516608 0.000827799
0.519123 0.000822873
0.521638 0.000821988
0.525145 0.000821275
0.528653 0.000820562
0.532225 0.000808911
0.535796 0.000796853
0.538357 0.000788207
0.540918 0.000779561
0.547164 0.000750426
0.553409 0.000713379
0.559769 0.000682231
0.566129 0.000637416
0.572605 0.000612743
0.579082 0.000575113
0.585677 0.000563375
0.592272 0.000545007
0.598989 0.00054178
0.605705 0.000536151
0.612544 0.000537039
0.619384 0.000537269
0.626349 0.000540227
0.633314 0.000543375
0.640406 0.000548288
0.647499 0.000554046
0.654722 0.000560966
0.661944 0.000569781
0.669299 0.000579032
0.676655 0.000590806
0.677437 0.000591962
0.678218 0.000593118
0.684927 0.000606463
0.691635 0.000621092
0.696077 0.000632737
0.700519 0.000646636
0.703704 0.000656601
0.70689 0.000666567
0.707701 0.000669421
0.708511 0.000672276
0.710724 0.000680286
0.712936 0.000689631
0.71768 0.00070967
0.722424 0.000729709
0.730334 0.000761322
0.738244 0.000793971
0.746299 0.000813542
0.754354 0.00083131
0.762556 0.000835232
0.770759 0.000835101
0.779112 0.000822155
0.787465 0.000801003
0.795971 0.00077366
0.804478 0.0007375
0.805382 0.000735515
0.806286 0.000733531
0.814044 0.000713419
0.821802 0.00069215
0.822879 0.000691074
0.823956 0.000689998
0.8317 0.000687867
0.839445 0.000687485
0.848428 0.000690557
0.857411 0.000700999
0.866558 0.000693814
0.875706 0.000693953
0.885021 0.000666014
0.894337 0.000640159
0.903823 0.000602743
0.91331 0.000563772
0.92297 0.000538175
0.93263 0.000511167
0.942468 0.000501248
0.952305 0.00049031
0.962323 0.000488689
0.972341 0.000485514
0.982543 0.000493398
0.992745 0.000498397
1.00313 0.000518938
1.01352 0.000540108
1.0241 0.000552944
1.03468 0.000571646
1.04545 0.000546029
1.05623 0.000528525
1.0672 0.000477671
1.07817 0.00043299
1.08934 0.000397223
1.10051 0.000364624
1.11189 0.000348774
1.12327 0.000337676
1.13485 0.000322455
1.14644 0.000313526
1.15824 0.000291961
1.17004 0.000273428
1.18205 0.000247172
1.19407 0.000217995
1.2063 0.000190857
1.21854 0.000156734
1.23099 0.00013487
1.24345 0.00010569
1.25614 9.03108e-05
1.26883 6.94985e-05
1.28175 5.87304e-05
1.29467 4.38441e-05
1.30783 3.82423e-05
1.32099 3.03327e-05
1.33439 2.83962e-05
1.34778 2.57311e-05
1.36143 2.51677e-05
1.37507 2.45098e-05
1.37652 2.44736e-05
1.37797 2.44375e-05
1.39042 2.42702e-05
1.40286 2.41565e-05
1.40459 2.41111e-05
1.40632 2.40657e-05
1.41874 2.38877e-05
1.43116 2.37561e-05
1.44557 2.33898e-05
1.45998 2.30158e-05
1.46151 2.29801e-05
1.46305 2.29445e-05
1.47619 2.24908e-05
1.48933 2.19817e-05
1.49115 2.19466e-05
1.49298 2.19116e-05
1.5061 2.14993e-05
1.51921 2.10371e-05
1.53443 2.07978e-05
1.54965 2.04943e-05
1.55127 2.04879e-05
1.55288 2.04814e-05
1.56676 2.03803e-05
1.58064 2.02622e-05
1.58257 2.02618e-05
1.58449 2.02614e-05
1.59835 2.02246e-05
1.6122 2.01772e-05
1.62827 2.01792e-05
1.64434 2.01577e-05
1.64605 2.0163e-05
1.64776 2.01683e-05
1.66241 2.01885e-05
1.67707 2.01993e-05
1.6791 2.02089e-05
1.68114 2.02184e-05
1.69577 2.02828e-05
1.7104 2.03458e-05
1.71217 2.03582e-05
1.71394 2.03705e-05
1.72914 2.0482e-05
1.74434 2.05955e-05
1.76162 2.07608e-05
1.7789 2.09289e-05
1.78105 2.09485e-05
1.78319 2.09682e-05
1.79864 2.11176e-05
1.81409 2.12695e-05
1.81597 2.12793e-05
1.81784 2.1289e-05
1.83389 2.13821e-05
1.84994 2.14787e-05
1.85216 2.14822e-05
1.85439 2.14856e-05
1.87041 2.15161e-05
1.88644 2.15482e-05
1.90502 2.1555e-05
1.9236 2.15638e-05
1.92558 2.15631e-05
1.92756 2.15625e-05
1.94451 2.15598e-05
1.96146 2.15584e-05
1.96381 2.1557e-05
1.96616 2.15555e-05
1.98308 2.15477e-05
2 2.15405e-05
