0 0.027687
0.00128482 0.0277496
0.00256965 0.0278128
0.00387803 0.0278806
0.00518642 0.0279521
0.00651881 0.0279504
0.00785119 0.02796
0.00920802 0.027935
0.0105648 0.0279292
0.0119465 0.0278788
0.0133283 0.0278536
0.0147353 0.0277761
0.0161424 0.0277284
0.0175752 0.0276266
0.0190081 0.0275573
0.0204672 0.027437
0.0219263 0.0273493
0.0234122 0.0272176
0.0248981 0.027116
0.0264113 0.0269803
0.0279244 0.0268698
0.0294653 0.0267372
0.0310063 0.0266227
0.0325754 0.0264987
0.0341446 0.026384
0.0357425 0.0262724
0.0373405 0.0261597
0.0389677 0.0260635
0.040595 0.0259544
0.0422521 0.0258765
0.0439092 0.0257723
0.0455967 0.0257148
0.0472842 0.0256169
0.0490026 0.0255809
0.0507211 0.0254909
0.052471 0.0254719
0.054221 0.0253862
0.056003 0.0253739
0.0577851 0.0252832
0.0595998 0.0252662
0.0614146 0.0251602
0.0632626 0.0251323
0.0651106 0.0250056
0.0669925 0.0249647
0.0688745 0.0248171
0.0707909 0.0247504
0.0727073 0.0245723
0.0746589 0.0244613
0.0766105 0.024236
0.0785979 0.0240725
0.0805853 0.023791
0.0826091 0.0235747
0.0846329 0.0232367
0.0866939 0.0229657
0.0887548 0.0225731
0.0908536 0.0222538
0.0929523 0.0218166
0.0950896 0.0214691
0.0972268 0.0210081
0.0994033 0.0206355
0.10158 0.0201616
0.103796 0.0197549
0.106012 0.0192739
0.108269 0.0188403
0.110526 0.0183672
0.112825 0.0179369
0.115123 0.0175036
0.115474 0.0174433
0.115825 0.0173829
0.117815 0.017041
0.119804 0.0167331
0.121514 0.016472
0.123224 0.0162109
0.123898 0.0161128
0.124571 0.0160756
0.126999 0.0157733
0.129426 0.0155721
0.131897 0.0153601
0.134369 0.0152661
0.136886 0.0151686
0.139403 0.0151914
0.140128 0.0151995
0.140852 0.0152076
0.142691 0.0152281
0.14453 0.015362
0.146353 0.0154753
0.148176 0.0155885
0.148963 0.015638
0.14975 0.015786
0.152408 0.0160886
0.155066 0.0164688
0.157773 0.0169036
0.16048 0.0173868
0.163237 0.0179284
0.165993 0.0184874
0.1688 0.0191086
0.171607 0.0197167
0.174466 0.0203986
0.177324 0.0210353
0.180235 0.0217627
0.183146 0.0224106
0.186111 0.0231743
0.189075 0.0238236
0.192094 0.0246084
0.195113 0.0252494
0.198187 0.026029
0.201261 0.0266438
0.204391 0.027398
0.207522 0.0279723
0.21071 0.0286839
0.213898 0.0292061
0.217144 0.0298583
0.22039 0.0303164
0.223696 0.0309007
0.227002 0.031288
0.230369 0.0318015
0.233735 0.0321159
0.237164 0.0325594
0.240592 0.0328019
0.244083 0.0331747
0.247574 0.0333457
0.251129 0.0336451
0.254685 0.0337434
0.258305 0.0339662
0.261925 0.0339899
0.265612 0.0341331
0.269299 0.0340815
0.273053 0.0341428
0.276808 0.0340164
0.280631 0.033994
0.284454 0.0337923
0.288348 0.0336841
0.292241 0.0334056
0.296206 0.0332095
0.300171 0.0328521
0.304208 0.0325661
0.308246 0.0321286
0.312358 0.0317514
0.316469 0.0312336
0.320656 0.0307648
0.324843 0.0301672
0.329107 0.0296074
0.333371 0.0289316
0.337713 0.0282819
0.342055 0.0275299
0.346476 0.0267925
0.350898 0.0259668
0.355401 0.0251459
0.359903 0.0242504
0.364489 0.0233497
0.369074 0.0223878
0.373744 0.021408
0.378413 0.0203815
0.383168 0.0193268
0.387923 0.0182414
0.392765 0.0171175
0.397608 0.0159797
0.402539 0.0147893
0.40747 0.0136014
0.412491 0.0123563
0.417513 0.0111259
0.422626 0.00984557
0.42774 0.00858926
0.432948 0.0072903
0.438155 0.00602478
0.443458 0.00471605
0.448761 0.00344984
0.454161 0.00213017
0.459561 0.000862395
0.46506 -0.000470135
0.47056 -0.00174216
0.47616 -0.00308438
0.48176 -0.0043576
0.487463 -0.00570378
0.493165 -0.00697278
0.498973 -0.00831462
0.50478 -0.00957417
0.510694 -0.0109046
0.516608 -0.0121482
0.52263 -0.0134663
0.528653 -0.0146871
0.534786 -0.0159996
0.540918 -0.0171918
0.547164 -0.0184917
0.553409 -0.0196424
0.559769 -0.0208992
0.566129 -0.0219859
0.572605 -0.0231635
0.579082 -0.0241611
0.585677 -0.0252193
0.592272 -0.0260959
0.598989 -0.0269923
0.605705 -0.0277145
0.612544 -0.0284385
0.619384 -0.0290007
0.626349 -0.0295832
0.633314 -0.030015
0.640406 -0.0304882
0.647499 -0.0308222
0.654722 -0.0312003
0.661944 -0.031452
0.669299 -0.0317407
0.676655 -0.031915
0.684145 -0.0321133
0.691635 -0.0322077
0.699262 -0.0323023
0.70689 -0.032303
0.708055 -0.0322987
0.70922 -0.0322943
0.715822 -0.0322697
0.722424 -0.0321625
0.727949 -0.0320398
0.733473 -0.031917
0.735858 -0.0318636
0.738244 -0.0317428
0.740673 -0.0316392
0.743103 -0.0315356
0.748728 -0.0312958
0.754354 -0.0310076
0.760083 -0.0306313
0.765811 -0.0302551
0.768285 -0.0300925
0.770759 -0.0299104
0.779112 -0.0291473
0.787465 -0.0283961
0.795971 -0.0274051
0.804478 -0.0264508
0.81314 -0.0252444
0.821802 -0.0240947
0.830623 -0.0227072
0.839445 -0.0213973
0.840792 -0.0211707
0.84214 -0.0209441
0.849775 -0.01966
0.857411 -0.0184763
0.866558 -0.0169204
0.875706 -0.0154816
0.882212 -0.0144239
0.888718 -0.0133662
0.891527 -0.0129101
0.894337 -0.0125669
0.903823 -0.0111429
0.91331 -0.0098146
0.92297 -0.00850626
0.93263 -0.00727164
0.942468 -0.0061112
0.952305 -0.00500156
0.962323 -0.00401129
0.972341 -0.00304408
0.973871 -0.00292162
0.975402 -0.00279916
0.984073 -0.00210523
0.992745 -0.00140412
1 -0.0009444
1.00726 -0.000484677
1.01039 -0.000286076
1.01352 -7.22628e-05
1.0241 0.00046502
1.03468 0.00098916
1.04545 0.00144711
1.05623 0.00186124
1.0672 0.0022467
1.07817 0.00258618
1.08934 0.00288591
1.10051 0.00315314
1.11189 0.00336094
1.12327 0.00354972
1.13485 0.0036486
1.14644 0.00374546
1.15824 0.00373576
1.17004 0.00374424
1.18205 0.00366145
1.19407 0.00361382
1.2063 0.00351617
1.21854 0.00345992
1.23099 0.00339765
1.24345 0.00337487
1.25614 0.00338162
1.26883 0.0034209
1.28175 0.0035323
1.29467 0.00366041
1.30783 0.00389595
1.32099 0.00412606
1.33439 0.00446819
1.34778 0.00477942
1.34983 0.00483478
1.35188 0.00489013
1.36348 0.00520379
1.37507 0.00546695
1.38478 0.00566666
1.39448 0.00586637
1.39867 0.00595235
1.40286 0.00599092
1.41701 0.00613841
1.43116 0.00625633
1.44557 0.00627079
1.45998 0.00627503
1.47466 0.00619617
1.48933 0.00612192
1.50427 0.00599294
1.51921 0.00587561
1.53443 0.00571892
1.54965 0.00557678
1.56514 0.00540425
1.58064 0.00524795
1.59642 0.00506793
1.6122 0.00490529
1.61461 0.00487845
1.61702 0.00485162
1.63068 0.00469957
1.64434 0.00456449
1.65577 0.00444535
1.6672 0.00432622
1.67213 0.00427485
1.67707 0.00423766
1.69373 0.00407947
1.7104 0.0039323
1.72737 0.00378738
1.74434 0.00365126
1.76162 0.00351917
1.7789 0.00339418
1.7965 0.00327426
1.81409 0.00315992
1.83202 0.00305128
1.84994 0.00294689
1.86819 0.00284844
1.88644 0.00275311
1.90502 0.00266368
1.9236 0.00257643
1.94253 0.00249504
1.96146 0.00241502
1.98073 0.0023458
2 0.00227724
