0 1e-10
0.00128482 0.00535404
0.00256965 0.0105515
0.00387803 0.010053
0.00518642 0.0095368
0.00651881 0.00906537
0.00785119 0.00858755
0.00920802 0.00815382
0.0105648 0.00772666
0.0119465 0.00732609
0.0133283 0.00694593
0.0147353 0.0065748
0.0161424 0.0062376
0.0175752 0.00589573
0.0190081 0.00560011
0.0204672 0.00529162
0.0219263 0.00504027
0.0234122 0.00477345
0.0248981 0.00457142
0.0264113 0.00435615
0.0279244 0.00420673
0.0294653 0.00405074
0.0310063 0.00395308
0.0325754 0.00385936
0.0341446 0.00380947
0.0357425 0.0037687
0.0373405 0.00375312
0.0389677 0.00374833
0.040595 0.00374868
0.0422521 0.00376824
0.0439092 0.00377087
0.0455967 0.00380559
0.0472842 0.003801
0.0490026 0.00384882
0.0507211 0.00383982
0.052471 0.00389362
0.054221 0.00388022
0.056003 0.00392448
0.0577851 0.00389909
0.0595998 0.00392297
0.0614146 0.00388139
0.0632626 0.00386847
0.0651106 0.00380017
0.0669925 0.00374989
0.0688745 0.00365602
0.0707909 0.00357472
0.0727073 0.00346138
0.0746589 0.00334734
0.0766105 0.00321328
0.0785979 0.0030733
0.0805853 0.0029252
0.0826091 0.00276467
0.0846329 0.00261129
0.0866939 0.00243897
0.0887548 0.00229007
0.0908536 0.00211053
0.0929523 0.0019675
0.0950896 0.00178485
0.0972268 0.00164559
0.0994033 0.00147803
0.10158 0.00135243
0.103796 0.00122283
0.106012 0.00112673
0.108269 0.00104012
0.110526 0.000976716
0.112825 0.00091649
0.115123 0.000873671
0.115474 0.000866995
0.115825 0.000860319
0.117815 0.000822487
0.119804 0.000799063
0.121514 0.000777485
0.123224 0.000755907
0.123898 0.000748175
0.124571 0.000750265
0.126999 0.000732755
0.129426 0.000724119
0.131897 0.000715903
0.134369 0.000715078
0.136886 0.00071479
0.139403 0.000720289
0.140128 0.000722295
0.140852 0.0007243
0.142691 0.000729389
0.14453 0.000738475
0.146353 0.000746426
0.148176 0.000754378
0.148963 0.000757824
0.14975 0.000763744
0.152408 0.000777749
0.155066 0.000792274
0.157773 0.000808173
0.16048 0.000822824
0.163237 0.000838302
0.165993 0.000851433
0.1688 0.000865849
0.171607 0.000876414
0.174466 0.000887856
0.177324 0.000894484
0.180235 0.000901389
0.183146 0.000902987
0.186111 0.00090714
0.189075 0.000904859
0.192094 0.000908206
0.195113 0.000903862
0.198187 0.000907309
0.201261 0.000902287
0.204391 0.000905901
0.207522 0.000900618
0.21071 0.000903281
0.213898 0.000896867
0.217144 0.000895949
0.22039 0.000886523
0.223696 0.000879368
0.227002 0.000865314
0.230369 0.000851792
0.233735 0.000833623
0.237164 0.000815592
0.240592 0.000795159
0.244083 0.000775367
0.247574 0.000754721
0.251129 0.00073566
0.254685 0.000716341
0.258305 0.000698309
0.261925 0.000680266
0.265612 0.000662571
0.269299 0.000645207
0.273053 0.000627765
0.276808 0.000611063
0.280631 0.000594089
0.284454 0.000578268
0.288348 0.000561998
0.292241 0.000547186
0.296206 0.000532118
0.300171 0.000518523
0.304208 0.00050505
0.308246 0.000492857
0.312358 0.000480997
0.316469 0.000470252
0.320656 0.000459677
0.324843 0.000450193
0.329107 0.000440418
0.333371 0.000431841
0.337713 0.000422549
0.342055 0.000414567
0.346476 0.000405583
0.350898 0.000397965
0.355401 0.000388769
0.359903 0.000381078
0.364489 0.000370497
0.369074 0.00036185
0.373744 0.000349878
0.378413 0.000340263
0.383168 0.000329555
0.387923 0.000320906
0.392765 0.0003134
0.397608 0.00030716
0.402539 0.000302539
0.40747 0.000298507
0.412491 0.000296329
0.417513 0.000294189
0.422626 0.000293376
0.42774 0.000292363
0.432948 0.000291457
0.438155 0.000290525
0.443458 0.000289387
0.448761 0.000288398
0.454161 0.000287361
0.459561 0.000286551
0.46506 0.00028587
0.47056 0.000285511
0.47616 0.000285618
0.48176 0.000286195
0.487463 0.000287726
0.493165 0.000290052
0.498973 0.000293764
0.50478 0.000298829
0.510694 0.000305167
0.516608 0.000313621
0.52263 0.00032288
0.528653 0.000335191
0.534786 0.000346325
0.540918 0.000361048
0.547164 0.000372459
0.553409 0.00038749
0.559769 0.000397666
0.566129 0.000411311
0.572605 0.000419082
0.579082 0.000429923
0.585677 0.000436574
0.592272 0.000445989
0.598989 0.000452924
0.605705 0.000462302
0.612544 0.000471352
0.619384 0.000482157
0.626349 0.000494901
0.633314 0.000508263
0.640406 0.000524733
0.647499 0.000540378
0.654722 0.000560103
0.661944 0.000577853
0.669299 0.00059952
0.676655 0.000618596
0.684145 0.000641591
0.691635 0.00066144
0.699262 0.000684839
0.70689 0.00070485
0.708055 0.000708187
0.70922 0.000711523
0.715822 0.000730432
0.722424 0.000746492
0.727949 0.000760953
0.733473 0.000775413
0.735858 0.000781645
0.738244 0.000785422
0.740673 0.000790959
0.743103 0.000796495
0.748728 0.000809316
0.754354 0.000819601
0.760083 0.000829789
0.765811 0.000839976
0.768285 0.000844363
0.770759 0.000846308
0.779112 0.000856059
0.787465 0.000863495
0.795971 0.0008684
0.804478 0.000871042
0.81314 0.000872163
0.821802 0.000870782
0.830623 0.00086881
0.839445 0.000863912
0.840792 0.00086314
0.84214 0.000862369
0.849775 0.000857996
0.857411 0.000850492
0.866558 0.000841992
0.875706 0.000830533
0.882212 0.00082208
0.888718 0.000813626
0.891527 0.000809963
0.894337 0.00080397
0.903823 0.000788435
0.91331 0.000771314
0.92297 0.000751838
0.93263 0.000731472
0.942468 0.000706133
0.952305 0.000680512
0.962323 0.000648337
0.972341 0.000616241
0.973871 0.000610483
0.975402 0.000604726
0.984073 0.0005721
0.992745 0.000539736
1 0.000510548
1.00726 0.000481359
1.01039 0.000468755
1.01352 0.000456342
1.0241 0.000416849
1.03468 0.000377649
1.04545 0.000346221
1.05623 0.000315522
1.0672 0.000293017
1.07817 0.000271422
1.08934 0.000252371
1.10051 0.000234491
1.11189 0.000213906
1.12327 0.000195243
1.13485 0.000174812
1.14644 0.000156998
1.15824 0.000141779
1.17004 0.000128821
1.18205 0.000121636
1.19407 0.000115286
1.2063 0.000115614
1.21854 0.00011533
1.23099 0.000123576
1.24345 0.000129717
1.25614 0.000143682
1.26883 0.000154599
1.28175 0.000167122
1.29467 0.000177326
1.30783 0.000187566
1.32099 0.000196482
1.33439 0.000211479
1.34778 0.000224102
1.34983 0.000226477
1.35188 0.000228851
1.36348 0.000242304
1.37507 0.000252098
1.38478 0.000250454
1.39448 0.00024881
1.39867 0.000248095
1.40286 0.000246453
1.41701 0.000206867
1.43116 0.000174295
1.44557 0.000123929
1.45998 8.37813e-05
1.47466 5.85221e-05
1.48933 3.86476e-05
1.50427 3.10565e-05
1.51921 2.5068e-05
1.53443 2.29808e-05
1.54965 2.13214e-05
1.56514 2.0642e-05
1.58064 2.00995e-05
1.59642 1.9807e-05
1.6122 1.95739e-05
1.61461 1.95525e-05
1.61702 1.95311e-05
1.63068 1.94098e-05
1.64434 1.93187e-05
1.65577 1.9275e-05
1.6672 1.92313e-05
1.67213 1.92126e-05
1.67707 1.921e-05
1.69373 1.9194e-05
1.7104 1.91915e-05
1.72737 1.92275e-05
1.74434 1.9279e-05
1.76162 1.93867e-05
1.7789 1.9507e-05
1.7965 1.96728e-05
1.81409 1.98436e-05
1.83202 1.99787e-05
1.84994 2.01143e-05
1.86819 2.01619e-05
1.88644 2.02101e-05
1.90502 2.02138e-05
1.9236 2.0218e-05
1.94253 2.01985e-05
1.96146 2.01794e-05
1.98073 2.01483e-05
2 2.0117e-05
