0 -0.273987
0.00128482 -0.273967
0.00256965 -0.273947
0.00387803 -0.273985
0.00518642 -0.274023
0.00651881 -0.274196
0.00785119 -0.27437
0.00920802 -0.27467
0.0105648 -0.274971
0.0119465 -0.27545
0.0133283 -0.275928
0.0147353 -0.27662
0.0161424 -0.277311
0.0175752 -0.278218
0.0190081 -0.279125
0.0204672 -0.280238
0.0219263 -0.281352
0.0234122 -0.282674
0.0248981 -0.283996
0.0264113 -0.285542
0.0279244 -0.287088
0.0294653 -0.28888
0.0310063 -0.290671
0.0325754 -0.292741
0.0341446 -0.29481
0.0357425 -0.297192
0.0373405 -0.299575
0.0389677 -0.302287
0.040595 -0.305
0.0422521 -0.308007
0.0439092 -0.311015
0.0455967 -0.314249
0.0472842 -0.317484
0.0490026 -0.32085
0.0507211 -0.324216
0.052471 -0.32759
0.054221 -0.330964
0.056003 -0.334242
0.0577851 -0.337519
0.0595998 -0.340616
0.0614146 -0.343712
0.0632626 -0.346559
0.0651106 -0.349405
0.0669925 -0.351951
0.0688745 -0.354496
0.0707909 -0.356723
0.0727073 -0.35895
0.0746589 -0.360842
0.0766105 -0.362735
0.0785979 -0.364261
0.0805853 -0.365787
0.0826091 -0.366949
0.0846329 -0.368112
0.0866939 -0.368911
0.0887548 -0.369711
0.0908536 -0.370105
0.0929523 -0.370498
0.0950896 -0.370447
0.0972268 -0.370395
0.0994033 -0.36987
0.10158 -0.369344
0.103796 -0.368316
0.106012 -0.367287
0.108269 -0.365745
0.110526 -0.364203
0.112825 -0.362165
0.115123 -0.360128
0.117464 -0.357642
0.119804 -0.355155
0.122188 -0.352301
0.124571 -0.349447
0.126999 -0.346373
0.129426 -0.343298
0.131897 -0.340238
0.134369 -0.337178
0.136886 -0.334401
0.139403 -0.331624
0.141967 -0.329303
0.14453 -0.326982
0.14714 -0.325154
0.14975 -0.323326
0.152408 -0.321948
0.155066 -0.32057
0.157773 -0.319569
0.16048 -0.318568
0.163237 -0.317878
0.165993 -0.317189
0.1688 -0.316749
0.171607 -0.316309
0.174466 -0.316097
0.177324 -0.315885
0.180235 -0.315946
0.183146 -0.316007
0.186111 -0.316436
0.189075 -0.316864
0.192094 -0.31773
0.195113 -0.318596
0.198187 -0.319867
0.201261 -0.321138
0.204391 -0.322697
0.207522 -0.324256
0.21071 -0.325836
0.213898 -0.327415
0.217144 -0.328715
0.22039 -0.330014
0.220574 -0.330061
0.220758 -0.330108
0.22388 -0.330905
0.227002 -0.331701
0.233591 -0.332329
0.233735 -0.332343
0.240592 -0.332079
0.247574 -0.331384
0.254685 -0.330865
0.258305 -0.330857
0.261925 -0.330849
0.265612 -0.331044
0.269299 -0.331238
0.273053 -0.331477
0.276808 -0.331716
0.280631 -0.331861
0.284454 -0.332005
0.288348 -0.331986
0.292241 -0.331967
0.296206 -0.331809
0.300171 -0.331651
0.304208 -0.331348
0.308246 -0.331045
0.312358 -0.330592
0.316469 -0.330139
0.320656 -0.329668
0.324843 -0.329196
0.329107 -0.328873
0.333371 -0.32855
0.337713 -0.328533
0.342055 -0.328515
0.346476 -0.329036
0.350898 -0.329557
0.355401 -0.330785
0.359903 -0.332013
0.364489 -0.333914
0.369074 -0.335814
0.373744 -0.338236
0.378413 -0.340657
0.383168 -0.343546
0.387923 -0.346434
0.392765 -0.349685
0.397608 -0.352935
0.402539 -0.356335
0.40747 -0.359736
0.412491 -0.363162
0.417513 -0.366589
0.422626 -0.369928
0.42774 -0.373268
0.432948 -0.376666
0.438155 -0.380065
0.443458 -0.384039
0.448761 -0.388012
0.454161 -0.392848
0.459561 -0.397683
0.46506 -0.403288
0.47056 -0.408893
0.47616 -0.415377
0.48176 -0.421861
0.487463 -0.428665
0.493165 -0.435469
0.498973 -0.441058
0.50478 -0.446647
0.510694 -0.450206
0.516608 -0.453765
0.52263 -0.454891
0.528653 -0.456018
0.534786 -0.455051
0.540918 -0.454084
0.547164 -0.452091
0.553409 -0.450098
0.559769 -0.447767
0.566129 -0.445437
0.572605 -0.442832
0.579082 -0.440228
0.585677 -0.43661
0.592272 -0.432993
0.598989 -0.42787
0.605705 -0.422748
0.612544 -0.416375
0.619384 -0.410002
0.626349 -0.403122
0.633314 -0.396243
0.640406 -0.389775
0.647499 -0.383308
0.654722 -0.377456
0.661944 -0.371605
0.669299 -0.365845
0.676655 -0.360085
0.684145 -0.353052
0.691635 -0.346019
0.699262 -0.340852
0.70689 -0.335684
0.714657 -0.336782
0.722424 -0.33788
0.730334 -0.34265
0.738244 -0.347421
0.746299 -0.35174
0.754354 -0.35606
0.762556 -0.358594
0.770759 -0.361127
0.779112 -0.364235
0.787465 -0.367343
0.795971 -0.372378
0.804478 -0.377413
0.81314 -0.383654
0.821802 -0.389896
0.830623 -0.398059
0.839445 -0.406221
0.848428 -0.415796
0.857411 -0.425371
0.866558 -0.434836
0.875706 -0.4443
0.885021 -0.452894
0.894337 -0.461488
0.903823 -0.469974
0.91331 -0.47846
0.92297 -0.488189
0.93263 -0.497918
0.942468 -0.508875
0.952305 -0.519832
0.962323 -0.527132
0.972341 -0.534432
0.982543 -0.531621
0.992745 -0.52881
1.00313 -0.515101
1.01352 -0.501391
1.0241 -0.483066
1.03468 -0.46474
1.04545 -0.449497
1.05623 -0.434254
1.0672 -0.424958
1.07817 -0.415662
1.08934 -0.410924
1.10051 -0.406187
1.11189 -0.403845
1.12327 -0.401502
1.13485 -0.399189
1.14644 -0.396876
1.15824 -0.393087
1.17004 -0.389297
1.18205 -0.38439
1.19407 -0.379484
1.2063 -0.374003
1.21854 -0.368521
1.23099 -0.361879
1.24345 -0.355236
1.25614 -0.347026
1.26883 -0.338816
1.28175 -0.329772
1.29467 -0.320729
1.30783 -0.3128
1.32099 -0.304872
1.33439 -0.299707
1.34778 -0.294543
1.36143 -0.292697
1.37507 -0.290851
1.38897 -0.293445
1.40286 -0.296039
1.41701 -0.305139
1.43116 -0.314238
1.44557 -0.327424
1.45998 -0.34061
1.47466 -0.349705
1.48933 -0.358801
1.50427 -0.35585
1.51921 -0.3529
1.53443 -0.333282
1.54965 -0.313664
1.56514 -0.289276
1.58064 -0.264889
1.59642 -0.257308
1.6122 -0.249726
1.62827 -0.251015
1.64434 -0.252305
1.6607 -0.243208
1.67707 -0.23411
1.69373 -0.223258
1.7104 -0.212406
1.72737 -0.206507
1.74434 -0.200608
1.76162 -0.195046
1.7789 -0.189485
1.7965 -0.184581
1.81409 -0.179678
1.83202 -0.175385
1.84994 -0.171092
1.86819 -0.167043
1.88644 -0.162994
1.90502 -0.158957
1.9236 -0.15492
1.94253 -0.150722
1.96146 -0.146525
1.98073 -0.143766
2 -0.141007
