0 1e-10
0.00128482 0.0017095
0.00256965 0.003419
0.00387803 0.00325242
0.00518642 0.00308584
0.00651881 0.00292868
0.00785119 0.00277151
0.00920802 0.0026085
0.0105648 0.00244549
0.0119465 0.00222857
0.0133283 0.00201164
0.0147353 0.00173761
0.0161424 0.00146359
0.0175752 0.00119612
0.0190081 0.000928655
0.0204672 0.000741503
0.0219263 0.000554352
0.0234122 0.000459823
0.0248981 0.000365295
0.0264113 0.000324769
0.0279244 0.000284244
0.0294653 0.000265524
0.0310063 0.000246803
0.0325754 0.000238564
0.0341446 0.000230326
0.0357425 0.000226902
0.0373405 0.000223478
0.0389677 0.000223582
0.040595 0.000223685
0.0422521 0.000227477
0.0439092 0.000231269
0.0455967 0.000237328
0.0472842 0.000243386
0.0490026 0.000249638
0.0507211 0.00025589
0.052471 0.000261445
0.054221 0.000267001
0.056003 0.000271088
0.0577851 0.000275176
0.0595998 0.000277287
0.0614146 0.000279399
0.0632626 0.000280008
0.0651106 0.000280617
0.0669925 0.000280528
0.0688745 0.000280439
0.0707909 0.000280198
0.0727073 0.000279956
0.0746589 0.000279898
0.0766105 0.00027984
0.0785979 0.00028029
0.0805853 0.00028074
0.0826091 0.000281866
0.0846329 0.000282992
0.0866939 0.000284975
0.0887548 0.000286957
0.0908536 0.000290331
0.0929523 0.000293705
0.0950896 0.000298823
0.0972268 0.00030394
0.0994033 0.000310049
0.10158 0.000316158
0.103796 0.000321731
0.106012 0.000327304
0.108269 0.000331532
0.110526 0.00033576
0.112825 0.000338623
0.115123 0.000341486
0.117464 0.000343318
0.119804 0.000345149
0.122188 0.000346639
0.124571 0.000348129
0.126999 0.000349704
0.129426 0.000351279
0.131897 0.000353119
0.134369 0.000354959
0.136886 0.000357029
0.139403 0.000359099
0.141967 0.000361038
0.14453 0.000362977
0.14714 0.000364808
0.14975 0.000366639
0.152408 0.000369296
0.155066 0.000371954
0.157773 0.000376884
0.16048 0.000381815
0.163237 0.000390376
0.165993 0.000398937
0.1688 0.000413174
0.171607 0.000427411
0.174466 0.000454121
0.177324 0.00048083
0.180235 0.000539982
0.183146 0.000599133
0.186111 0.000738936
0.189075 0.00087874
0.192094 0.00115541
0.195113 0.00143208
0.198187 0.00179333
0.201261 0.00215457
0.204391 0.00239482
0.207522 0.00263506
0.21071 0.00265383
0.213898 0.00267259
0.217144 0.00254665
0.22039 0.00242071
0.223696 0.00228665
0.227002 0.0021526
0.230369 0.00207968
0.233735 0.00200675
0.237164 0.00196727
0.240592 0.00192779
0.244083 0.00191653
0.247574 0.00190527
0.251129 0.00191876
0.254685 0.00193225
0.258305 0.00196024
0.261925 0.00198823
0.265612 0.00202745
0.269299 0.00206668
0.273053 0.00210913
0.276808 0.00215157
0.280631 0.0021899
0.284454 0.00222823
0.288348 0.00226111
0.292241 0.002294
0.296206 0.00231465
0.300171 0.00233531
0.304208 0.00233197
0.308246 0.00232864
0.312358 0.00230706
0.316469 0.00228549
0.320656 0.00226419
0.324843 0.00224289
0.329107 0.00223813
0.333371 0.00223336
0.337713 0.00225553
0.342055 0.0022777
0.346476 0.00230171
0.350898 0.00232572
0.355401 0.00229724
0.359903 0.00226875
0.364489 0.00217202
0.369074 0.00207529
0.373744 0.00197415
0.378413 0.001873
0.383168 0.00180196
0.387923 0.00173091
0.392765 0.00166901
0.397608 0.00160711
0.402539 0.00155194
0.40747 0.00149678
0.417513 0.00142055
0.42774 0.00137911
0.438155 0.00135773
0.448761 0.00135502
0.459561 0.00136229
0.46506 0.0013672
0.47056 0.00137211
0.47616 0.00139574
0.48176 0.00141937
0.487463 0.00147873
0.493165 0.00153809
0.498973 0.00164613
0.50478 0.00175416
0.510694 0.00190773
0.516608 0.0020613
0.52263 0.00220989
0.528653 0.00235848
0.534786 0.00250496
0.540918 0.00265145
0.547164 0.0027848
0.553409 0.00291815
0.559769 0.00301246
0.566129 0.00310678
0.572605 0.00317073
0.579082 0.00323468
0.585677 0.0032513
0.592272 0.00326792
0.598989 0.00323583
0.605705 0.00320374
0.612544 0.00311788
0.619384 0.00303202
0.626349 0.00289294
0.633314 0.00275387
0.640406 0.00259871
0.647499 0.00244355
0.654722 0.00230658
0.661944 0.00216962
0.669299 0.00206453
0.676655 0.00195945
0.684145 0.00188635
0.691635 0.00181325
0.699262 0.00178192
0.70689 0.00175059
0.722424 0.00179847
0.738244 0.00205316
0.754354 0.00272287
0.770759 0.00367163
0.787465 0.0043643
0.804478 0.00454799
0.821802 0.00416456
0.830623 0.00383267
0.839445 0.00350077
0.848428 0.003231
0.857411 0.00296123
0.866558 0.00280254
0.875706 0.00264385
0.885021 0.0025848
0.894337 0.00252576
0.903823 0.0025138
0.91331 0.00250184
0.92297 0.00247806
0.93263 0.00245427
0.952305 0.00238848
0.972341 0.00240187
0.992745 0.00245068
1.01352 0.00236436
1.03468 0.00205072
1.05623 0.00180816
1.07817 0.00265225
1.10051 0.00566939
1.12327 0.00740265
1.14644 0.00555145
1.17004 0.00367451
1.19407 0.00384223
1.21854 0.00503709
1.24345 0.00564738
1.26883 0.0054781
1.29467 0.00520748
1.32099 0.00395148
1.34778 0.00191881
1.37507 0.000670819
1.40286 0.000267837
1.43116 0.00015061
1.45998 0.000117538
1.48933 0.000105495
1.51921 9.89002e-05
1.54965 9.40849e-05
1.58064 9.02763e-05
1.6122 8.725e-05
1.64434 8.46572e-05
1.67707 8.25748e-05
1.7104 8.13354e-05
1.74434 8.07504e-05
1.7789 8.04705e-05
1.81409 8.05201e-05
1.84994 8.07994e-05
1.88644 8.09997e-05
1.9236 8.10966e-05
1.96146 8.11597e-05
2 8.07578e-05
