0 1e-10
0.000963618 0.00233239
0.00192724 0.00450734
0.00290853 0.00399521
0.00388982 0.00351512
0.00488911 0.00296508
0.0058884 0.00243675
0.00690601 0.00196377
0.00792363 0.00151788
0.00895991 0.00117395
0.00999619 0.000860414
0.0110515 0.000650044
0.0121068 0.000465214
0.0131814 0.000359542
0.0142561 0.000268598
0.0153504 0.000225823
0.0164448 0.000188131
0.0175592 0.000174519
0.0186736 0.000161542
0.0198085 0.000160111
0.0209433 0.00015721
0.022099 0.000163406
0.0232547 0.000166026
0.0244316 0.000178484
0.0256084 0.000185822
0.0268069 0.000202794
0.0280054 0.000214362
0.0292258 0.000233429
0.0304462 0.000248596
0.0316891 0.000266251
0.0329319 0.000283601
0.0341975 0.000295488
0.0354631 0.000312469
0.036752 0.000315986
0.0380408 0.000329443
0.0393533 0.000325192
0.0406657 0.000332258
0.0420023 0.000322349
0.0433388 0.000322138
0.0446999 0.000308895
0.0460609 0.000302674
0.047447 0.000288224
0.048833 0.000277829
0.0502444 0.000264005
0.0516559 0.000251005
0.0530932 0.000239599
0.0545305 0.000225632
0.0559942 0.00021773
0.0574579 0.000204753
0.0589484 0.000200318
0.060439 0.000190134
0.0619568 0.000188306
0.0634747 0.000182015
0.0650204 0.000181612
0.0665661 0.000178745
0.0681402 0.000179073
0.0697143 0.000178194
0.0713172 0.000178865
0.0729201 0.000178839
0.0745524 0.000179627
0.0761848 0.000179914
0.077847 0.0001808
0.0795093 0.000181258
0.0812021 0.000182313
0.0828948 0.000182995
0.0846186 0.000184241
0.0863424 0.000185248
0.0880979 0.000186637
0.0898533 0.000188035
0.0916409 0.000189447
0.0934285 0.000191175
0.0952489 0.000192396
0.0970693 0.000194283
0.0989231 0.000195049
0.100777 0.000196944
0.102665 0.000197149
0.104552 0.000198935
0.106475 0.000198632
0.108397 0.000200155
0.110355 0.000199383
0.112313 0.0002004
0.114306 0.000199236
0.1163 0.000199529
0.11833 0.000198123
0.12036 0.000197572
0.122428 0.000196089
0.124495 0.000194639
0.1266 0.000193215
0.128705 0.00019096
0.130849 0.000189576
0.132993 0.000186751
0.135177 0.000185275
0.13736 0.000182112
0.139583 0.000180406
0.141806 0.000177137
0.14407 0.000175175
0.146334 0.000172046
0.14864 0.000169921
0.150946 0.000166916
0.153293 0.000164617
0.155641 0.000161495
0.158032 0.000159142
0.160423 0.000156056
0.162858 0.000153862
0.165293 0.000151228
0.167772 0.000149206
0.170252 0.000147083
0.172776 0.000145161
0.175301 0.000143342
0.177873 0.000141516
0.180444 0.000140156
0.183062 0.000138443
0.185681 0.000137754
0.188347 0.00013611
0.191013 0.000135798
0.193729 0.000134126
0.196444 0.000133648
0.199209 0.000131963
0.201974 0.000131016
0.20479 0.000129446
0.207606 0.00012806
0.210473 0.000126766
0.213341 0.000125096
0.216261 0.000124264
0.219181 0.000122676
0.222155 0.000122468
0.225128 0.000121389
0.228156 0.000121759
0.231184 0.000121263
0.234268 0.000121965
0.237352 0.000121832
0.240492 0.000122618
0.243632 0.000122507
0.24683 0.000123096
0.250028 0.000122552
0.253285 0.000123449
0.256541 0.00012301
0.259857 0.000125859
0.263174 0.000127238
0.266551 0.00013476
0.269928 0.000139782
0.273367 0.000150608
0.276806 0.000157979
0.280308 0.000164279
0.28381 0.000168656
0.287376 0.000166876
0.290942 0.000165624
0.294574 0.00015599
0.298206 0.000149027
0.301904 0.000137818
0.305602 0.000128888
0.309368 0.000123599
0.313135 0.000118698
0.31697 0.000117725
0.320805 0.000116696
0.324711 0.000118687
0.328616 0.000120438
0.332593 0.000125452
0.336571 0.000130054
0.340621 0.000135595
0.344671 0.000140499
0.348795 0.000144256
0.35292 0.000147317
0.35712 0.000149619
0.36132 0.000151407
0.365597 0.000153273
0.369874 0.00015472
0.37423 0.00015671
0.378585 0.000158296
0.383021 0.000160389
0.387456 0.000162214
0.391973 0.000164211
0.39649 0.000166619
0.401089 0.000167981
0.405689 0.000170374
0.410373 0.000170802
0.415057 0.000172317
0.419827 0.000171857
0.424597 0.000172613
0.429454 0.000171313
0.434311 0.000170965
0.439258 0.000169911
0.444204 0.000168622
0.449241 0.000169888
0.454279 0.000168796
0.459408 0.000175686
0.464538 0.000176075
0.469761 0.000194996
0.474985 0.000199119
0.480305 0.000242916
0.485624 0.000255339
0.491041 0.00034814
0.496458 0.000377578
0.501975 0.000522595
0.507491 0.000583083
0.513109 0.000737877
0.518726 0.000846886
0.524447 0.000959037
0.530167 0.00109805
0.535993 0.00114768
0.541818 0.00126744
0.547751 0.00127076
0.553683 0.00134427
0.559724 0.00132258
0.565765 0.00134657
0.571917 0.00130371
0.578069 0.00128756
0.584334 0.00123658
0.590599 0.00119732
0.596979 0.00115366
0.603358 0.00110936
0.609855 0.00108224
0.616352 0.00104897
0.622968 0.00102814
0.629583 0.00100619
0.636321 0.000966115
0.643058 0.000934185
0.649919 0.000870342
0.656779 0.000814686
0.663766 0.000761866
0.670753 0.000706993
0.677867 0.000689682
0.684982 0.000668297
0.692227 0.000683824
0.699473 0.000707253
0.706851 0.000782554
0.714229 0.000896059
0.721742 0.0011073
0.729256 0.0013482
0.736907 0.00151441
0.744558 0.00166504
0.75235 0.00163218
0.760142 0.00159246
0.768076 0.00153736
0.776011 0.00150956
0.784091 0.00153539
0.792171 0.0015745
0.800399 0.00164519
0.808627 0.00169812
0.817006 0.00181944
0.825385 0.00191344
0.833918 0.00225251
0.842451 0.00254785
0.85114 0.00308703
0.85983 0.00362723
0.868678 0.00399025
0.877527 0.0043368
0.886538 0.0042228
0.895549 0.00413632
0.904725 0.00353933
0.913901 0.00302142
0.923246 0.00252701
0.93259 0.00198161
0.942106 0.00177565
0.951622 0.00152802
0.961313 0.00147865
0.971003 0.00139855
0.980872 0.00143435
0.99074 0.00144594
1.00079 0.00153089
1.01084 0.00162055
1.02107 0.00167868
1.03131 0.00177807
1.04173 0.00177898
1.05215 0.00180604
1.06276 0.00176648
1.07337 0.00173949
1.08418 0.00170039
1.09499 0.0016519
1.10599 0.00163712
1.117 0.00161189
1.1282 0.00159666
1.13941 0.00158153
1.15082 0.00157112
1.16224 0.00155461
1.17386 0.00158767
1.18548 0.00160238
1.19731 0.0017211
1.20915 0.00183974
1.2212 0.00196527
1.23325 0.0021771
1.24553 0.00217985
1.2578 0.00229173
1.2703 0.00219758
1.2828 0.00214783
1.29552 0.00190159
1.30825 0.0017198
1.32121 0.00137974
1.33417 0.00101477
1.34737 0.000810454
1.36057 0.00046362
1.37401 0.000380398
1.38745 0.000215912
1.40114 0.000184154
1.41483 0.000121427
1.42877 0.000109566
1.4427 8.61554e-05
1.4569 8.16261e-05
1.47109 7.28354e-05
1.48555 7.14454e-05
1.5 6.90444e-05
1.50339 6.85117e-05
1.50679 6.79791e-05
1.5136 6.71691e-05
1.52041 6.63591e-05
1.52046 6.63526e-05
1.5205 6.6346e-05
1.52751 6.57395e-05
1.53451 6.51341e-05
1.53809 6.49131e-05
1.54167 6.46922e-05
1.54524 6.44682e-05
1.54882 6.42442e-05
1.55612 6.39363e-05
1.56343 6.36306e-05
1.56363 6.36259e-05
1.56383 6.36212e-05
1.57109 6.34313e-05
1.57835 6.32414e-05
1.58265 6.31793e-05
1.58696 6.31172e-05
1.59027 6.30609e-05
1.59359 6.30047e-05
1.60137 6.29436e-05
1.60915 6.28739e-05
1.61013 6.28671e-05
1.61111 6.28604e-05
1.61807 6.28114e-05
1.62504 6.27625e-05
1.6307 6.27392e-05
1.63636 6.2716e-05
1.63881 6.27051e-05
1.64127 6.26943e-05
1.64955 6.26853e-05
1.65784 6.26503e-05
1.66031 6.26441e-05
1.66279 6.26379e-05
1.66878 6.26254e-05
1.67476 6.2613e-05
1.68262 6.25988e-05
1.69048 6.25846e-05
1.69126 6.25849e-05
1.69205 6.25853e-05
1.70087 6.25851e-05
1.7097 6.25771e-05
1.7146 6.25883e-05
1.71951 6.25996e-05
1.72362 6.26244e-05
1.72772 6.26493e-05
1.73693 6.27464e-05
1.74613 6.28432e-05
1.74806 6.28776e-05
1.75 6.2912e-05
1.75746 6.30586e-05
1.76493 6.32051e-05
1.77349 6.34311e-05
1.78205 6.36572e-05
1.78309 6.36841e-05
1.78412 6.3711e-05
1.79393 6.40333e-05
1.80373 6.436e-05
1.80976 6.45872e-05
1.81579 6.48144e-05
1.81977 6.49544e-05
1.82375 6.50943e-05
1.83397 6.54447e-05
1.8442 6.57825e-05
1.84777 6.58679e-05
1.85135 6.59534e-05
1.85821 6.60994e-05
1.86508 6.62454e-05
1.87574 6.63836e-05
1.8864 6.65116e-05
1.88764 6.65193e-05
1.88889 6.65269e-05
1.89853 6.65702e-05
1.90818 6.66135e-05
1.91837 6.66439e-05
1.92857 6.66743e-05
1.92949 6.66778e-05
1.93041 6.66813e-05
1.94177 6.6689e-05
1.95312 6.66964e-05
1.96186 6.66923e-05
1.97059 6.66881e-05
1.97345 6.66863e-05
1.97632 6.66844e-05
1.98816 6.67994e-05
2 6.69114e-05
