1 -0.123697
1.00148 -0.124223
1.00296 -0.124748
1.00447 -0.126903
1.00598 -0.129057
1.00753 -0.132588
1.00907 -0.136119
1.01065 -0.139155
1.01222 -0.142191
1.01383 -0.143153
1.01544 -0.144115
1.01709 -0.142711
1.01873 -0.141308
1.02041 -0.138322
1.02209 -0.135337
1.02381 -0.131962
1.02552 -0.128586
1.02727 -0.12596
1.02902 -0.123334
1.03081 -0.122055
1.0326 -0.120777
1.03443 -0.120843
1.03625 -0.120908
1.03812 -0.12187
1.03998 -0.122833
1.04189 -0.123876
1.04379 -0.124919
1.04574 -0.125287
1.04768 -0.125656
1.04967 -0.125327
1.05165 -0.124999
1.05368 -0.124825
1.05571 -0.124651
1.05778 -0.125391
1.05985 -0.12613
1.06197 -0.127746
1.06409 -0.129362
1.06625 -0.13162
1.06841 -0.133878
1.07061 -0.136727
1.07282 -0.139576
1.07507 -0.143032
1.07733 -0.146489
1.07963 -0.150621
1.08193 -0.154752
1.08428 -0.159704
1.08663 -0.164656
1.08903 -0.170601
1.09143 -0.176546
1.09388 -0.183634
1.09633 -0.190723
1.09883 -0.19906
1.10133 -0.207397
1.10389 -0.217043
1.10644 -0.226689
1.10905 -0.237704
1.11166 -0.248719
1.11433 -0.261201
1.11699 -0.273682
1.11972 -0.287782
1.12244 -0.301881
1.12522 -0.317779
1.128 -0.333677
1.13084 -0.351555
1.13368 -0.369432
1.13657 -0.389407
1.13947 -0.409381
1.14539 -0.453342
1.15144 -0.500147
1.15762 -0.54666
1.16392 -0.587119
1.17036 -0.613986
1.17694 -0.621026
1.18366 -0.60391
1.19052 -0.561265
1.19752 -0.4998
1.20467 -0.431168
1.21198 -0.363726
1.21944 -0.300605
1.22706 -0.244229
1.23484 -0.198577
1.24278 -0.165346
1.2509 -0.142181
1.25918 -0.125655
1.26764 -0.113738
1.27629 -0.105336
1.28511 -0.0998163
1.29412 -0.0966973
1.30333 -0.0955323
1.31273 -0.0959252
1.32233 -0.0974834
1.33213 -0.100086
1.34214 -0.103686
1.35236 -0.107642
1.3628 -0.111258
1.37346 -0.113903
1.38435 -0.115009
1.39547 -0.114676
1.40682 -0.114337
1.41842 -0.11594
1.43026 -0.119802
1.44236 -0.124478
1.45471 -0.128791
1.46732 -0.132661
1.4802 -0.135949
1.49335 -0.138564
1.50679 -0.140412
1.5205 -0.140989
1.53451 -0.139526
1.54882 -0.135388
1.56343 -0.12901
1.57835 -0.122287
1.59359 -0.116918
1.60915 -0.112478
1.62504 -0.108257
1.64127 -0.104943
1.65784 -0.103775
1.67476 -0.105406
1.69205 -0.109278
1.7097 -0.114035
1.72772 -0.117989
1.74613 -0.120128
1.76493 -0.120025
1.78412 -0.117397
1.80373 -0.112362
1.82375 -0.104961
1.8442 -0.0958931
1.86508 -0.0869397
1.8864 -0.0797539
1.90818 -0.0744427
1.93041 -0.0704164
1.95312 -0.0673628
1.97632 -0.0652464
2 -0.0640997
