1 1e-10
1.00148 0.00270506
1.00296 0.00541012
1.00447 0.00714332
1.00598 0.00887652
1.00753 0.0105391
1.00907 0.0122017
1.01065 0.0125052
1.01222 0.0128087
1.01383 0.0117804
1.01544 0.0107522
1.01709 0.00933519
1.01873 0.00791821
1.02041 0.00691468
1.02209 0.00591115
1.02381 0.00541797
1.02552 0.00492479
1.02727 0.00472938
1.02902 0.00453398
1.03081 0.00445491
1.0326 0.00437583
1.03443 0.00434774
1.03625 0.00431965
1.03812 0.00429956
1.03998 0.00427946
1.04189 0.00409488
1.04379 0.00391029
1.04574 0.00342403
1.04768 0.00293776
1.04967 0.00233917
1.05165 0.00174057
1.05368 0.00134232
1.05571 0.000944073
1.05778 0.000782392
1.05985 0.000620712
1.06197 0.000577352
1.06409 0.000533993
1.06625 0.000531192
1.06841 0.00052839
1.07061 0.000548272
1.07282 0.000568154
1.07507 0.000611918
1.07733 0.000655683
1.07963 0.0007233
1.08193 0.000790916
1.08428 0.000876641
1.08663 0.000962365
1.08903 0.00105582
1.09143 0.00114928
1.09388 0.00123976
1.09633 0.00133024
1.09883 0.00141102
1.10133 0.00149179
1.10389 0.00156293
1.10644 0.00163406
1.10905 0.00170021
1.11166 0.00176635
1.11433 0.00183235
1.11699 0.00189834
1.11972 0.00196782
1.12244 0.00203729
1.12522 0.00211203
1.128 0.00218677
1.13084 0.00226682
1.13368 0.00234688
1.13657 0.00243286
1.13947 0.00251885
1.14539 0.00270559
1.15144 0.00291154
1.15762 0.00314376
1.16392 0.00341051
1.17036 0.00371531
1.17694 0.00403645
1.18366 0.00429987
1.19052 0.0044609
1.19752 0.00450309
1.20467 0.00430451
1.21198 0.00386458
1.21944 0.00334566
1.22706 0.00278239
1.23484 0.00222123
1.24278 0.00176132
1.2509 0.00145346
1.25918 0.00128755
1.26764 0.00119425
1.27629 0.00112972
1.28511 0.00106807
1.29412 0.000986032
1.30333 0.000902809
1.31273 0.000874576
1.32233 0.000888291
1.33213 0.000849566
1.34214 0.000729876
1.35236 0.000619349
1.3628 0.000595942
1.37346 0.000684583
1.38435 0.000915261
1.39547 0.00128762
1.40682 0.00171106
1.41842 0.0017717
1.43026 0.0014749
1.44236 0.00121706
1.45471 0.00104591
1.46732 0.000971456
1.4802 0.000975133
1.49335 0.00100937
1.50679 0.00104329
1.5205 0.00108391
1.53451 0.00113718
1.54882 0.00118987
1.56343 0.00122296
1.57835 0.00126563
1.59359 0.00134039
1.60915 0.00125277
1.62504 0.000989306
1.64127 0.000895041
1.65784 0.00112127
1.67476 0.00150078
1.69205 0.00179205
1.7097 0.00194344
1.72772 0.00197183
1.74613 0.00183446
1.76493 0.00157857
1.78412 0.00127939
1.80373 0.000974294
1.82375 0.000711038
1.8442 0.000526469
1.86508 0.000448655
1.8864 0.00044637
1.90818 0.000448262
1.93041 0.000450724
1.95312 0.000474593
1.97632 0.000462564
2 0.000372889
