0 0.0069408
0.00128482 0.00695761
0.00256965 0.00697434
0.00387803 0.00702155
0.00518642 0.00706917
0.00651881 0.00714121
0.00785119 0.00721461
0.00920802 0.00731127
0.0105648 0.00741025
0.0119465 0.0075341
0.0133283 0.00766152
0.0147353 0.00781299
0.0161424 0.00796938
0.0175752 0.00814878
0.0190081 0.00833428
0.0204672 0.00854183
0.0219263 0.00875621
0.0234122 0.00899047
0.0248981 0.00923154
0.0264113 0.00948879
0.0279244 0.00975172
0.0294653 0.0100249
0.0310063 0.0103012
0.0325754 0.0105772
0.0341446 0.010853
0.0357425 0.011117
0.0373405 0.0113776
0.0389677 0.0116204
0.040595 0.0118579
0.0422521 0.0120777
0.0439092 0.0122938
0.0455967 0.0124967
0.0472842 0.0127015
0.0490026 0.0128979
0.0507211 0.0131036
0.052471 0.0133023
0.054221 0.0135156
0.056003 0.0137133
0.0577851 0.0139261
0.0595998 0.0140931
0.0614146 0.0142708
0.0632626 0.0143544
0.0651106 0.0144408
0.0669925 0.0143898
0.0688745 0.0143318
0.0707909 0.0141178
0.0727073 0.013887
0.0746589 0.0135055
0.0766105 0.0130998
0.0785979 0.0125567
0.0805853 0.0119837
0.0826091 0.011287
0.0846329 0.0105559
0.0866939 0.00972341
0.0887548 0.00885405
0.0908536 0.00791232
0.0929523 0.00693335
0.0950896 0.00590829
0.0972268 0.00484797
0.0994033 0.00376358
0.10158 0.00264875
0.103796 0.00153612
0.106012 0.000399823
0.108269 -0.000708189
0.110526 -0.00183132
0.112825 -0.00291719
0.115123 -0.00400929
0.117464 -0.00506415
0.119804 -0.00611831
0.122188 -0.00713843
0.124571 -0.00815246
0.126999 -0.00914084
0.129426 -0.0101185
0.131897 -0.0110774
0.134369 -0.0120221
0.136886 -0.0129454
0.139403 -0.0138519
0.141967 -0.0147257
0.14453 -0.0155806
0.14714 -0.01639
0.14975 -0.0171795
0.152408 -0.0179184
0.155066 -0.0186374
0.157773 -0.0193132
0.16048 -0.0199702
0.163237 -0.0205927
0.165993 -0.0211965
0.1688 -0.0217628
0.171607 -0.022308
0.174466 -0.0228043
0.177324 -0.023275
0.180235 -0.0236731
0.183146 -0.0240395
0.186111 -0.0242863
0.189075 -0.0244921
0.192094 -0.0245347
0.195113 -0.0245254
0.198187 -0.0243389
0.201261 -0.0240924
0.204391 -0.0236581
0.207522 -0.0231597
0.21071 -0.0224837
0.213898 -0.0217425
0.217144 -0.0208863
0.22039 -0.0199687
0.223696 -0.0190032
0.227002 -0.0179871
0.230369 -0.0169813
0.233735 -0.0159421
0.237164 -0.0149814
0.240592 -0.0140069
0.240786 -0.013957
0.240981 -0.0139071
0.244277 -0.0131278
0.247574 -0.0123485
0.251129 -0.0117045
0.254685 -0.0110891
0.258305 -0.0106878
0.261925 -0.0103312
0.265612 -0.0102153
0.269299 -0.0101493
0.273053 -0.0103184
0.276808 -0.0105247
0.280631 -0.0109299
0.284454 -0.0113443
0.288348 -0.0118649
0.292241 -0.0123665
0.296206 -0.01281
0.300171 -0.0132193
0.304208 -0.013453
0.308246 -0.0136587
0.312358 -0.0136979
0.316469 -0.0137252
0.320656 -0.0136979
0.324843 -0.0136695
0.329107 -0.0137148
0.333371 -0.0137535
0.337713 -0.0139522
0.342055 -0.014133
0.346476 -0.0146229
0.350898 -0.0151016
0.355401 -0.0161741
0.359903 -0.0172577
0.364489 -0.0193073
0.369074 -0.0214055
0.373744 -0.0246768
0.378413 -0.0280242
0.383168 -0.0324779
0.387923 -0.0370089
0.392765 -0.0423715
0.397608 -0.0477914
0.402539 -0.0535979
0.40747 -0.059431
0.412491 -0.0650828
0.417513 -0.070717
0.422626 -0.0756394
0.42774 -0.0804875
0.432948 -0.0842475
0.438155 -0.0878848
0.443458 -0.0901229
0.448761 -0.0921982
0.454161 -0.0929142
0.459561 -0.0934606
0.46506 -0.092939
0.47056 -0.0922749
0.47616 -0.0906671
0.48176 -0.0889308
0.487463 -0.0863044
0.493165 -0.0835527
0.498973 -0.0799169
0.50478 -0.076172
0.510694 -0.0717102
0.516608 -0.0671779
0.52263 -0.0622005
0.528653 -0.0572233
0.534786 -0.0519902
0.540918 -0.0468464
0.541266 -0.0464839
0.541614 -0.0461214
0.547512 -0.0413915
0.553409 -0.0366616
0.559769 -0.031812
0.566129 -0.0271747
0.572605 -0.0227563
0.579082 -0.0185532
0.579449 -0.0182548
0.579817 -0.0179564
0.586045 -0.0144157
0.592272 -0.0108751
0.598989 -0.00760055
0.605705 -0.00445873
0.612544 -0.00214188
0.619384 8.03905e-05
0.626349 0.000740201
0.633314 0.0013436
0.640406 0.000225765
0.647499 -0.000907883
0.654722 -0.00303396
0.661944 -0.00514092
0.669299 -0.00744552
0.676655 -0.00971303
0.684145 -0.011315
0.691635 -0.012863
0.699262 -0.0131522
0.70689 -0.0133593
0.714657 -0.0123193
0.722424 -0.0111726
0.730334 -0.00925276
0.738244 -0.00721133
0.746299 -0.00510378
0.754354 -0.00289226
0.762556 -0.00138848
0.770759 0.000151442
0.779112 1.52663e-05
0.787465 -0.000218649
0.795971 -0.00299669
0.804478 -0.00604415
0.81314 -0.0119467
0.821802 -0.018233
0.830623 -0.0260221
0.839445 -0.0340953
0.839945 -0.034497
0.840446 -0.0348987
0.848928 -0.0410414
0.857411 -0.0471841
0.866558 -0.0498387
0.875706 -0.0520102
0.885021 -0.0501113
0.894337 -0.0475262
0.903823 -0.042684
0.91331 -0.0372492
0.92297 -0.0321235
0.93263 -0.0267438
0.942468 -0.0230222
0.952305 -0.0193908
0.962323 -0.0172936
0.972341 -0.0154557
0.982543 -0.0148183
0.992745 -0.0144807
1.00313 -0.0150444
1.01352 -0.0158922
1.0241 -0.0172633
1.03468 -0.0188689
1.04545 -0.0204737
1.05623 -0.022259
1.05684 -0.0222804
1.05745 -0.0223019
1.06781 -0.023811
1.07817 -0.0253201
1.08934 -0.0265601
1.10051 -0.0278904
1.10115 -0.0279162
1.10178 -0.027942
1.11252 -0.0288528
1.12327 -0.0297635
1.13485 -0.0302481
1.14644 -0.030768
1.15824 -0.0308328
1.17004 -0.0309228
1.18205 -0.0306633
1.19407 -0.0304257
1.2063 -0.0299937
1.21854 -0.0295804
1.21923 -0.0295467
1.21992 -0.0295131
1.23169 -0.0290664
1.24345 -0.0286198
1.25614 -0.0281424
1.26883 -0.0276753
1.28175 -0.0272375
1.29467 -0.0268059
1.30783 -0.0264064
1.32099 -0.0260102
1.33439 -0.0256423
1.34778 -0.0252755
1.36143 -0.0249324
1.37507 -0.0245891
1.38897 -0.0242656
1.40286 -0.023941
1.41701 -0.023634
1.43116 -0.0233253
1.44557 -0.0230326
1.45998 -0.0227377
1.47466 -0.0224575
1.48933 -0.022175
1.50427 -0.021906
1.51921 -0.0216346
1.53443 -0.0213758
1.54965 -0.0211146
1.55051 -0.0211017
1.55137 -0.0210889
1.56601 -0.0208514
1.58064 -0.0206139
1.59642 -0.0203741
1.6122 -0.0201321
1.62827 -0.0199018
1.64434 -0.0196693
1.6607 -0.0194486
1.67707 -0.019226
1.69373 -0.0190155
1.7104 -0.018803
1.72737 -0.0186031
1.74434 -0.0184014
1.76162 -0.0182127
1.7789 -0.0180224
1.7965 -0.0178453
1.81409 -0.0176667
1.83202 -0.0175021
1.84994 -0.0173361
1.86819 -0.0171838
1.88644 -0.0170301
1.90502 -0.0168908
1.9236 -0.0167503
1.94253 -0.0166237
1.96146 -0.0164959
1.98073 -0.0163865
2 -0.016276
