# Force coefficients
# liftDir     : (0.000000e+00 0.000000e+00 1.000000e+00)
# dragDir     : (1.000000e+00 0.000000e+00 0.000000e+00)
# pitchAxis   : (0.000000e+00 1.000000e+00 0.000000e+00)
# magUInf     : 1.000000e+00
# lRef        : 1.000000e+00
# Aref        : 1.000000e+00
# CofR        : (7.500000e+00 0.000000e+00 0.000000e+00)
#
# Time        	Cm            	Cd            	Cl            	Cl(f)         	Cl(r)         
1             	2.309188e-04	8.326837e-01	2.481292e-04	3.549833e-04	-1.068542e-04
2             	4.239163e-04	1.358413e+00	3.105630e-03	1.976731e-03	1.128898e-03
3             	2.978258e-04	1.859407e+00	5.132190e-03	2.863921e-03	2.268269e-03
4             	-3.053861e-04	2.042433e+00	5.589595e-03	2.489411e-03	3.100183e-03
5             	-8.167578e-04	1.940277e+00	4.569648e-03	1.468066e-03	3.101582e-03
6             	-1.132937e-03	1.689857e+00	3.862803e-03	7.984642e-04	3.064339e-03
7             	-1.104233e-03	1.417826e+00	4.774017e-03	1.282775e-03	3.491242e-03
8             	-7.977188e-04	1.212540e+00	7.542784e-03	2.973673e-03	4.569111e-03
9             	-4.133230e-04	1.105390e+00	1.149944e-02	5.336399e-03	6.163045e-03
10            	-1.166163e-04	1.080477e+00	1.565879e-02	7.712778e-03	7.946010e-03
11            	8.875970e-05	1.101549e+00	1.932793e-02	9.752726e-03	9.575207e-03
12            	1.608709e-04	1.135824e+00	2.261577e-02	1.146876e-02	1.114702e-02
13            	7.742061e-05	1.160815e+00	2.578698e-02	1.297091e-02	1.281607e-02
14            	-1.094152e-04	1.164199e+00	2.946419e-02	1.462268e-02	1.484151e-02
15            	-4.103411e-04	1.148665e+00	3.456470e-02	1.687201e-02	1.769269e-02
16            	-8.445490e-04	1.121154e+00	4.198557e-02	2.014824e-02	2.183734e-02
17            	-1.388514e-03	1.087121e+00	5.185476e-02	2.453886e-02	2.731589e-02
18            	-2.099109e-03	1.053160e+00	6.410263e-02	2.995221e-02	3.415042e-02
19            	-2.993795e-03	1.026964e+00	7.862941e-02	3.632091e-02	4.230850e-02
20            	-4.088409e-03	1.010838e+00	9.494644e-02	4.338481e-02	5.156163e-02
21            	-5.420469e-03	1.004661e+00	1.122727e-01	5.071587e-02	6.155681e-02
22            	-7.029311e-03	1.004537e+00	1.297744e-01	5.785789e-02	7.191651e-02
23            	-8.903978e-03	1.008073e+00	1.467692e-01	6.448062e-02	8.228857e-02
24            	-1.109235e-02	1.012361e+00	1.633957e-01	7.060549e-02	9.279019e-02
25            	-1.360589e-02	1.014943e+00	1.799454e-01	7.636681e-02	1.035786e-01
26            	-1.637022e-02	1.016232e+00	1.967565e-01	8.200805e-02	1.147485e-01
27            	-1.919443e-02	1.016940e+00	2.140921e-01	8.785164e-02	1.262405e-01
28            	-2.179294e-02	1.017829e+00	2.326192e-01	9.451668e-02	1.381026e-01
29            	-2.422994e-02	1.019354e+00	2.519184e-01	1.017292e-01	1.501891e-01
30            	-2.622921e-02	1.021294e+00	2.725355e-01	1.100386e-01	1.624970e-01
31            	-2.783119e-02	1.023265e+00	2.948010e-01	1.195693e-01	1.752317e-01
32            	-2.899782e-02	1.024860e+00	3.193558e-01	1.306801e-01	1.886757e-01
33            	-2.980807e-02	1.026094e+00	3.463001e-01	1.433420e-01	2.029581e-01
34            	-3.032028e-02	1.027370e+00	3.754794e-01	1.574194e-01	2.180600e-01
35            	-3.064903e-02	1.029049e+00	4.063465e-01	1.725242e-01	2.338223e-01
36            	-3.082399e-02	1.031055e+00	4.382854e-01	1.883187e-01	2.499667e-01
37            	-3.093544e-02	1.033575e+00	4.704078e-01	2.042685e-01	2.661394e-01
38            	-3.114181e-02	1.036196e+00	5.025119e-01	2.201141e-01	2.823977e-01
39            	-3.167600e-02	1.038832e+00	5.341171e-01	2.353826e-01	2.987346e-01
40            	-3.270859e-02	1.041629e+00	5.648165e-01	2.496996e-01	3.151168e-01
41            	-3.423533e-02	1.044412e+00	5.940300e-01	2.627797e-01	3.312503e-01
42            	-3.625532e-02	1.047347e+00	6.220587e-01	2.747740e-01	3.472847e-01
43            	-3.869128e-02	1.050315e+00	6.484810e-01	2.855492e-01	3.629318e-01
44            	-4.140151e-02	1.053087e+00	6.730522e-01	2.951246e-01	3.779276e-01
45            	-4.427282e-02	1.055317e+00	6.953985e-01	3.034264e-01	3.919721e-01
46            	-4.691407e-02	1.056560e+00	7.150386e-01	3.106052e-01	4.044333e-01
47            	-4.906310e-02	1.056453e+00	7.317102e-01	3.167920e-01	4.149182e-01
48            	-5.095285e-02	1.055303e+00	7.453548e-01	3.217246e-01	4.236302e-01
49            	-5.297565e-02	1.053241e+00	7.564936e-01	3.252711e-01	4.312224e-01
50            	-5.541625e-02	1.050939e+00	7.659053e-01	3.275364e-01	4.383689e-01
51            	-5.814640e-02	1.049359e+00	7.737811e-01	3.287441e-01	4.450369e-01
52            	-6.090780e-02	1.048795e+00	7.796025e-01	3.288935e-01	4.507091e-01
53            	-6.344129e-02	1.049141e+00	7.829871e-01	3.280523e-01	4.549348e-01
54            	-6.566974e-02	1.049944e+00	7.839066e-01	3.262836e-01	4.576230e-01
55            	-6.758751e-02	1.050928e+00	7.827830e-01	3.238040e-01	4.589790e-01
56            	-6.938335e-02	1.052654e+00	7.800785e-01	3.206559e-01	4.594226e-01
57            	-7.120638e-02	1.054806e+00	7.761093e-01	3.168483e-01	4.592610e-01
58            	-7.315064e-02	1.056944e+00	7.713917e-01	3.125452e-01	4.588465e-01
59            	-7.525505e-02	1.058749e+00	7.667512e-01	3.081205e-01	4.586306e-01
60            	-7.761223e-02	1.060824e+00	7.622748e-01	3.035252e-01	4.587496e-01
61            	-8.022142e-02	1.063512e+00	7.579792e-01	2.987682e-01	4.592110e-01
62            	-8.299833e-02	1.066593e+00	7.538722e-01	2.939378e-01	4.599344e-01
63            	-8.588466e-02	1.069947e+00	7.502431e-01	2.892369e-01	4.610062e-01
64            	-8.877013e-02	1.073613e+00	7.467050e-01	2.845824e-01	4.621226e-01
65            	-9.148805e-02	1.077492e+00	7.425481e-01	2.797860e-01	4.627621e-01
66            	-9.402158e-02	1.081166e+00	7.377966e-01	2.748767e-01	4.629199e-01
67            	-9.630423e-02	1.084142e+00	7.326961e-01	2.700438e-01	4.626523e-01
68            	-9.834262e-02	1.086139e+00	7.273982e-01	2.653565e-01	4.620417e-01
69            	-1.001992e-01	1.086994e+00	7.219099e-01	2.607557e-01	4.611542e-01
70            	-1.018808e-01	1.086640e+00	7.166104e-01	2.564244e-01	4.601860e-01
71            	-1.033359e-01	1.085223e+00	7.118934e-01	2.526108e-01	4.592826e-01
72            	-1.045747e-01	1.083073e+00	7.075239e-01	2.491872e-01	4.583367e-01
73            	-1.055695e-01	1.080795e+00	7.033166e-01	2.460888e-01	4.572279e-01
74            	-1.063000e-01	1.078856e+00	6.989504e-01	2.431752e-01	4.557751e-01
75            	-1.067404e-01	1.077874e+00	6.943124e-01	2.404158e-01	4.538966e-01
76            	-1.069173e-01	1.078786e+00	6.891734e-01	2.376694e-01	4.515040e-01
77            	-1.068463e-01	1.082134e+00	6.830730e-01	2.346902e-01	4.483828e-01
78            	-1.066099e-01	1.088151e+00	6.754745e-01	2.311273e-01	4.443472e-01
79            	-1.063390e-01	1.096689e+00	6.661580e-01	2.267400e-01	4.394180e-01
80            	-1.060799e-01	1.107028e+00	6.552869e-01	2.215635e-01	4.337234e-01
81            	-1.058366e-01	1.118192e+00	6.431499e-01	2.157383e-01	4.274116e-01
82            	-1.055668e-01	1.129803e+00	6.301303e-01	2.094984e-01	4.206319e-01
83            	-1.051997e-01	1.141924e+00	6.167159e-01	2.031583e-01	4.135576e-01
84            	-1.046872e-01	1.154773e+00	6.032842e-01	1.969549e-01	4.063293e-01
85            	-1.040209e-01	1.168638e+00	5.900504e-01	1.910043e-01	3.990461e-01
86            	-1.031674e-01	1.183511e+00	5.773068e-01	1.854860e-01	3.918208e-01
87            	-1.020522e-01	1.199004e+00	5.659093e-01	1.809025e-01	3.850068e-01
88            	-1.005971e-01	1.214454e+00	5.566402e-01	1.777230e-01	3.789172e-01
89            	-9.879821e-02	1.229311e+00	5.495089e-01	1.759563e-01	3.735527e-01
90            	-9.666159e-02	1.243188e+00	5.439314e-01	1.753041e-01	3.686273e-01
91            	-9.424162e-02	1.255290e+00	5.394937e-01	1.755052e-01	3.639885e-01
92            	-9.164273e-02	1.265162e+00	5.359333e-01	1.763239e-01	3.596094e-01
93            	-8.899646e-02	1.272610e+00	5.330515e-01	1.775293e-01	3.555222e-01
94            	-8.644957e-02	1.277409e+00	5.306143e-01	1.788576e-01	3.517567e-01
95            	-8.410283e-02	1.279503e+00	5.284418e-01	1.801181e-01	3.483237e-01
96            	-8.203849e-02	1.279035e+00	5.263821e-01	1.811526e-01	3.452296e-01
97            	-8.033295e-02	1.276224e+00	5.242755e-01	1.818048e-01	3.424707e-01
98            	-7.905308e-02	1.271262e+00	5.219511e-01	1.819225e-01	3.400286e-01
99            	-7.823614e-02	1.264432e+00	5.193788e-01	1.814533e-01	3.379256e-01
100           	-7.787347e-02	1.256013e+00	5.165821e-01	1.804176e-01	3.361645e-01
101           	-7.794471e-02	1.246347e+00	5.136790e-01	1.788948e-01	3.347842e-01
102           	-7.840741e-02	1.235796e+00	5.108373e-01	1.770112e-01	3.338261e-01
103           	-7.919360e-02	1.224807e+00	5.082940e-01	1.749534e-01	3.333406e-01
104           	-8.019261e-02	1.213797e+00	5.064588e-01	1.730368e-01	3.334220e-01
105           	-8.129656e-02	1.203124e+00	5.056151e-01	1.715110e-01	3.341041e-01
106           	-8.242029e-02	1.193156e+00	5.058556e-01	1.705075e-01	3.353481e-01
107           	-8.348767e-02	1.184158e+00	5.071730e-01	1.700989e-01	3.370742e-01
108           	-8.444414e-02	1.176323e+00	5.094864e-01	1.702991e-01	3.391873e-01
109           	-8.526663e-02	1.169886e+00	5.126079e-01	1.710373e-01	3.415706e-01
110           	-8.596018e-02	1.164935e+00	5.164270e-01	1.722533e-01	3.441737e-01
111           	-8.653968e-02	1.161390e+00	5.209343e-01	1.739275e-01	3.470068e-01
112           	-8.701813e-02	1.159105e+00	5.261239e-01	1.760438e-01	3.500801e-01
113           	-8.741699e-02	1.157878e+00	5.319083e-01	1.785372e-01	3.533712e-01
114           	-8.775186e-02	1.157503e+00	5.381863e-01	1.813413e-01	3.568450e-01
115           	-8.804467e-02	1.157741e+00	5.447909e-01	1.843508e-01	3.604401e-01
116           	-8.833217e-02	1.158381e+00	5.514868e-01	1.874112e-01	3.640755e-01
117           	-8.859587e-02	1.159256e+00	5.581511e-01	1.904797e-01	3.676714e-01
118           	-8.883781e-02	1.160194e+00	5.645549e-01	1.934397e-01	3.711153e-01
119           	-8.905379e-02	1.161037e+00	5.705363e-01	1.962143e-01	3.743219e-01
120           	-8.923714e-02	1.161616e+00	5.759998e-01	1.987628e-01	3.772371e-01
121           	-8.935662e-02	1.161816e+00	5.808946e-01	2.010907e-01	3.798039e-01
122           	-8.941256e-02	1.161554e+00	5.851343e-01	2.031546e-01	3.819797e-01
123           	-8.939065e-02	1.160813e+00	5.887007e-01	2.049597e-01	3.837410e-01
124           	-8.926861e-02	1.159615e+00	5.916687e-01	2.065658e-01	3.851030e-01
125           	-8.901542e-02	1.158047e+00	5.942024e-01	2.080858e-01	3.861166e-01
126           	-8.860188e-02	1.156222e+00	5.964201e-01	2.096082e-01	3.868119e-01
127           	-8.801636e-02	1.154198e+00	5.984438e-01	2.112055e-01	3.872383e-01
128           	-8.724928e-02	1.152071e+00	6.004426e-01	2.129720e-01	3.874706e-01
129           	-8.631483e-02	1.149951e+00	6.025568e-01	2.149636e-01	3.875933e-01
130           	-8.522490e-02	1.147941e+00	6.049070e-01	2.172286e-01	3.876784e-01
131           	-8.400362e-02	1.146091e+00	6.075817e-01	2.197872e-01	3.877945e-01
132           	-8.269066e-02	1.144396e+00	6.106525e-01	2.226356e-01	3.880169e-01
133           	-8.132860e-02	1.142821e+00	6.141945e-01	2.257687e-01	3.884259e-01
134           	-7.995957e-02	1.141310e+00	6.182217e-01	2.291513e-01	3.890704e-01
135           	-7.862350e-02	1.139791e+00	6.226906e-01	2.327218e-01	3.899688e-01
136           	-7.735090e-02	1.138259e+00	6.275331e-01	2.364157e-01	3.911175e-01
137           	-7.616605e-02	1.136703e+00	6.326818e-01	2.401748e-01	3.925069e-01
138           	-7.508552e-02	1.135134e+00	6.380103e-01	2.439196e-01	3.940907e-01
139           	-7.412482e-02	1.133542e+00	6.433900e-01	2.475702e-01	3.958198e-01
140           	-7.327533e-02	1.131946e+00	6.487081e-01	2.510787e-01	3.976294e-01
141           	-7.254625e-02	1.130343e+00	6.538171e-01	2.543623e-01	3.994548e-01
142           	-7.191620e-02	1.128724e+00	6.586612e-01	2.574144e-01	4.012468e-01
143           	-7.137758e-02	1.127105e+00	6.631242e-01	2.601845e-01	4.029397e-01
144           	-7.090415e-02	1.125478e+00	6.672111e-01	2.627014e-01	4.045097e-01
145           	-7.048314e-02	1.123832e+00	6.709348e-01	2.649843e-01	4.059506e-01
146           	-7.010530e-02	1.122201e+00	6.742832e-01	2.670363e-01	4.072469e-01
147           	-6.976785e-02	1.120589e+00	6.772478e-01	2.688560e-01	4.083917e-01
148           	-6.947004e-02	1.119020e+00	6.798029e-01	2.704314e-01	4.093715e-01
149           	-6.920404e-02	1.117503e+00	6.819558e-01	2.717739e-01	4.101820e-01
150           	-6.896231e-02	1.116037e+00	6.837222e-01	2.728988e-01	4.108234e-01
151           	-6.873357e-02	1.114669e+00	6.851242e-01	2.738285e-01	4.112957e-01
152           	-6.851303e-02	1.113394e+00	6.862242e-01	2.745991e-01	4.116251e-01
153           	-6.830668e-02	1.112237e+00	6.870372e-01	2.752119e-01	4.118253e-01
154           	-6.811963e-02	1.111201e+00	6.876088e-01	2.756848e-01	4.119241e-01
155           	-6.794263e-02	1.110323e+00	6.880092e-01	2.760619e-01	4.119472e-01
156           	-6.776784e-02	1.109577e+00	6.882308e-01	2.763475e-01	4.118832e-01
157           	-6.759018e-02	1.108954e+00	6.882571e-01	2.765384e-01	4.117187e-01
158           	-6.741056e-02	1.108460e+00	6.880846e-01	2.766318e-01	4.114529e-01
159           	-6.723299e-02	1.108070e+00	6.877272e-01	2.766306e-01	4.110966e-01
160           	-6.705625e-02	1.107766e+00	6.871921e-01	2.765398e-01	4.106523e-01
161           	-6.688315e-02	1.107514e+00	6.864898e-01	2.763617e-01	4.101280e-01
162           	-6.671579e-02	1.107316e+00	6.856704e-01	2.761194e-01	4.095510e-01
163           	-6.655905e-02	1.107166e+00	6.848234e-01	2.758526e-01	4.089708e-01
164           	-6.641566e-02	1.107066e+00	6.840025e-01	2.755856e-01	4.084169e-01
165           	-6.629527e-02	1.107032e+00	6.832104e-01	2.753099e-01	4.079005e-01
166           	-6.620716e-02	1.107090e+00	6.824425e-01	2.750141e-01	4.074284e-01
167           	-6.615021e-02	1.107282e+00	6.816731e-01	2.746864e-01	4.069868e-01
168           	-6.612446e-02	1.107608e+00	6.809168e-01	2.743339e-01	4.065829e-01
169           	-6.612758e-02	1.108107e+00	6.801404e-01	2.739426e-01	4.061978e-01
170           	-6.615981e-02	1.108787e+00	6.793390e-01	2.735097e-01	4.058293e-01
171           	-6.621714e-02	1.109640e+00	6.784992e-01	2.730325e-01	4.054668e-01
172           	-6.629068e-02	1.110674e+00	6.776100e-01	2.725143e-01	4.050957e-01
173           	-6.637362e-02	1.111850e+00	6.766905e-01	2.719716e-01	4.047189e-01
174           	-6.646016e-02	1.113144e+00	6.757325e-01	2.714061e-01	4.043264e-01
175           	-6.654875e-02	1.114553e+00	6.747067e-01	2.708046e-01	4.039021e-01
176           	-6.663637e-02	1.116056e+00	6.735887e-01	2.701580e-01	4.034307e-01
177           	-6.672194e-02	1.117653e+00	6.723348e-01	2.694455e-01	4.028893e-01
178           	-6.680557e-02	1.119350e+00	6.709127e-01	2.686508e-01	4.022619e-01
179           	-6.688876e-02	1.121127e+00	6.693174e-01	2.677699e-01	4.015475e-01
180           	-6.697455e-02	1.122980e+00	6.675524e-01	2.668016e-01	4.007507e-01
181           	-6.706585e-02	1.124909e+00	6.656334e-01	2.657509e-01	3.998825e-01
182           	-6.716529e-02	1.126939e+00	6.635927e-01	2.646311e-01	3.989617e-01
183           	-6.727733e-02	1.129084e+00	6.614632e-01	2.634543e-01	3.980089e-01
184           	-6.740636e-02	1.131355e+00	6.592706e-01	2.622289e-01	3.970417e-01
185           	-6.755215e-02	1.133727e+00	6.570401e-01	2.609679e-01	3.960722e-01
186           	-6.771627e-02	1.136183e+00	6.547831e-01	2.596753e-01	3.951078e-01
187           	-6.789999e-02	1.138702e+00	6.524972e-01	2.583486e-01	3.941486e-01
188           	-6.810393e-02	1.141268e+00	6.501929e-01	2.569925e-01	3.932004e-01
189           	-6.832958e-02	1.143885e+00	6.478890e-01	2.556149e-01	3.922741e-01
190           	-6.857522e-02	1.146530e+00	6.455878e-01	2.542187e-01	3.913691e-01
191           	-6.883691e-02	1.149215e+00	6.433056e-01	2.528159e-01	3.904897e-01
192           	-6.911644e-02	1.151974e+00	6.410685e-01	2.514178e-01	3.896507e-01
193           	-6.940507e-02	1.154780e+00	6.388970e-01	2.500434e-01	3.888535e-01
194           	-6.969081e-02	1.157619e+00	6.367947e-01	2.487065e-01	3.880882e-01
195           	-6.996951e-02	1.160533e+00	6.347477e-01	2.474043e-01	3.873434e-01
196           	-7.023589e-02	1.163502e+00	6.327504e-01	2.461393e-01	3.866111e-01
197           	-7.047647e-02	1.166481e+00	6.308029e-01	2.449250e-01	3.858779e-01
198           	-7.068690e-02	1.169458e+00	6.289034e-01	2.437648e-01	3.851386e-01
199           	-7.086372e-02	1.172394e+00	6.270551e-01	2.426639e-01	3.843913e-01
200           	-7.100709e-02	1.175240e+00	6.252726e-01	2.416292e-01	3.836434e-01
201           	-7.111921e-02	1.177920e+00	6.235401e-01	2.406508e-01	3.828893e-01
202           	-7.120428e-02	1.180368e+00	6.218430e-01	2.397172e-01	3.821258e-01
203           	-7.126920e-02	1.182498e+00	6.201654e-01	2.388135e-01	3.813519e-01
204           	-7.132247e-02	1.184251e+00	6.185061e-01	2.379306e-01	3.805755e-01
205           	-7.137113e-02	1.185576e+00	6.168764e-01	2.370670e-01	3.798093e-01
206           	-7.142185e-02	1.186506e+00	6.152395e-01	2.361979e-01	3.790416e-01
207           	-7.147813e-02	1.187123e+00	6.135752e-01	2.353094e-01	3.782657e-01
208           	-7.154382e-02	1.187477e+00	6.118545e-01	2.343834e-01	3.774711e-01
209           	-7.161784e-02	1.187640e+00	6.100067e-01	2.333855e-01	3.766212e-01
210           	-7.169806e-02	1.187662e+00	6.080031e-01	2.323035e-01	3.756996e-01
211           	-7.178051e-02	1.187585e+00	6.058274e-01	2.311332e-01	3.746942e-01
212           	-7.186025e-02	1.187433e+00	6.034843e-01	2.298819e-01	3.736024e-01
213           	-7.192654e-02	1.187206e+00	6.010103e-01	2.285786e-01	3.724317e-01
214           	-7.197514e-02	1.186939e+00	5.984651e-01	2.272574e-01	3.712077e-01
215           	-7.200062e-02	1.186653e+00	5.958972e-01	2.259480e-01	3.699492e-01
216           	-7.200082e-02	1.186347e+00	5.933891e-01	2.246937e-01	3.686954e-01
217           	-7.197648e-02	1.186018e+00	5.910085e-01	2.235278e-01	3.674807e-01
218           	-7.192595e-02	1.185696e+00	5.888074e-01	2.224778e-01	3.663297e-01
219           	-7.185628e-02	1.185407e+00	5.868127e-01	2.215501e-01	3.652626e-01
220           	-7.177735e-02	1.185142e+00	5.850660e-01	2.207556e-01	3.643103e-01
221           	-7.169528e-02	1.184919e+00	5.835685e-01	2.200890e-01	3.634795e-01
222           	-7.161409e-02	1.184761e+00	5.822971e-01	2.195345e-01	3.627626e-01
223           	-7.154283e-02	1.184636e+00	5.812515e-01	2.190829e-01	3.621686e-01
224           	-7.148982e-02	1.184544e+00	5.804014e-01	2.187109e-01	3.616905e-01
225           	-7.145791e-02	1.184511e+00	5.796955e-01	2.183899e-01	3.613057e-01
226           	-7.144915e-02	1.184538e+00	5.790939e-01	2.180978e-01	3.609961e-01
227           	-7.146314e-02	1.184622e+00	5.785560e-01	2.178149e-01	3.607411e-01
228           	-7.149724e-02	1.184762e+00	5.780531e-01	2.175293e-01	3.605238e-01
229           	-7.154847e-02	1.184951e+00	5.775656e-01	2.172343e-01	3.603312e-01
230           	-7.161388e-02	1.185175e+00	5.770857e-01	2.169290e-01	3.601567e-01
231           	-7.169162e-02	1.185430e+00	5.766065e-01	2.166116e-01	3.599949e-01
232           	-7.177956e-02	1.185711e+00	5.761129e-01	2.162769e-01	3.598360e-01
233           	-7.187528e-02	1.186018e+00	5.755923e-01	2.159209e-01	3.596714e-01
234           	-7.197591e-02	1.186344e+00	5.750430e-01	2.155456e-01	3.594974e-01
235           	-7.208041e-02	1.186689e+00	5.744612e-01	2.151502e-01	3.593110e-01
236           	-7.218816e-02	1.187050e+00	5.738489e-01	2.147363e-01	3.591126e-01
237           	-7.229926e-02	1.187440e+00	5.732247e-01	2.143131e-01	3.589116e-01
238           	-7.240736e-02	1.187835e+00	5.725986e-01	2.138919e-01	3.587067e-01
239           	-7.251332e-02	1.188243e+00	5.719818e-01	2.134776e-01	3.585042e-01
240           	-7.261656e-02	1.188673e+00	5.713702e-01	2.130685e-01	3.583017e-01
241           	-7.271548e-02	1.189154e+00	5.707606e-01	2.126648e-01	3.580958e-01
242           	-7.281094e-02	1.189656e+00	5.701537e-01	2.122659e-01	3.578878e-01
243           	-7.289890e-02	1.190158e+00	5.695726e-01	2.118874e-01	3.576852e-01
244           	-7.298101e-02	1.190672e+00	5.690055e-01	2.115218e-01	3.574838e-01
245           	-7.305484e-02	1.191195e+00	5.684681e-01	2.111792e-01	3.572889e-01
246           	-7.311889e-02	1.191699e+00	5.679419e-01	2.108520e-01	3.570898e-01
247           	-7.317363e-02	1.192201e+00	5.674286e-01	2.105407e-01	3.568879e-01
248           	-7.321597e-02	1.192669e+00	5.669226e-01	2.102454e-01	3.566773e-01
249           	-7.325053e-02	1.193109e+00	5.664303e-01	2.099646e-01	3.564657e-01
250           	-7.328373e-02	1.193507e+00	5.659467e-01	2.096896e-01	3.562571e-01
251           	-7.331698e-02	1.193833e+00	5.654763e-01	2.094212e-01	3.560551e-01
252           	-7.335146e-02	1.194110e+00	5.650210e-01	2.091591e-01	3.558620e-01
253           	-7.339535e-02	1.194358e+00	5.645586e-01	2.088840e-01	3.556747e-01
254           	-7.345016e-02	1.194598e+00	5.640737e-01	2.085867e-01	3.554870e-01
255           	-7.351071e-02	1.194854e+00	5.635561e-01	2.082673e-01	3.552887e-01
256           	-7.357497e-02	1.195164e+00	5.629834e-01	2.079167e-01	3.550667e-01
257           	-7.363988e-02	1.195546e+00	5.623447e-01	2.075325e-01	3.548122e-01
258           	-7.370387e-02	1.196005e+00	5.616163e-01	2.071043e-01	3.545120e-01
259           	-7.376636e-02	1.196519e+00	5.607929e-01	2.066301e-01	3.541628e-01
260           	-7.382632e-02	1.197067e+00	5.598893e-01	2.061183e-01	3.537710e-01
261           	-7.388282e-02	1.197623e+00	5.589085e-01	2.055714e-01	3.533371e-01
262           	-7.393385e-02	1.198180e+00	5.578664e-01	2.049994e-01	3.528671e-01
263           	-7.398015e-02	1.198717e+00	5.567668e-01	2.044033e-01	3.523636e-01
264           	-7.402372e-02	1.199218e+00	5.556121e-01	2.037823e-01	3.518298e-01
265           	-7.406675e-02	1.199668e+00	5.544116e-01	2.031391e-01	3.512726e-01
266           	-7.410984e-02	1.200061e+00	5.531918e-01	2.024860e-01	3.507057e-01
267           	-7.415292e-02	1.200408e+00	5.519704e-01	2.018323e-01	3.501381e-01
268           	-7.419571e-02	1.200722e+00	5.507560e-01	2.011823e-01	3.495737e-01
269           	-7.423789e-02	1.201013e+00	5.495614e-01	2.005428e-01	3.490186e-01
270           	-7.428001e-02	1.201286e+00	5.483880e-01	1.999140e-01	3.484740e-01
271           	-7.432093e-02	1.201541e+00	5.472205e-01	1.992893e-01	3.479312e-01
272           	-7.435986e-02	1.201764e+00	5.460566e-01	1.986684e-01	3.473881e-01
273           	-7.439496e-02	1.201946e+00	5.449049e-01	1.980575e-01	3.468474e-01
274           	-7.442672e-02	1.202081e+00	5.437733e-01	1.974599e-01	3.463134e-01
275           	-7.445585e-02	1.202173e+00	5.426790e-01	1.968837e-01	3.457954e-01
276           	-7.448199e-02	1.202227e+00	5.416267e-01	1.963314e-01	3.452953e-01
277           	-7.450280e-02	1.202233e+00	5.406199e-01	1.958071e-01	3.448127e-01
278           	-7.451986e-02	1.202192e+00	5.396672e-01	1.953138e-01	3.443535e-01
279           	-7.453616e-02	1.202120e+00	5.387706e-01	1.948492e-01	3.439215e-01
280           	-7.455056e-02	1.202006e+00	5.379168e-01	1.944079e-01	3.435090e-01
281           	-7.456000e-02	1.201840e+00	5.371138e-01	1.939969e-01	3.431169e-01
282           	-7.456879e-02	1.201653e+00	5.363742e-01	1.936183e-01	3.427559e-01
283           	-7.457691e-02	1.201442e+00	5.356905e-01	1.932684e-01	3.424222e-01
284           	-7.457962e-02	1.201182e+00	5.350494e-01	1.929451e-01	3.421043e-01
285           	-7.458000e-02	1.200885e+00	5.344525e-01	1.926462e-01	3.418062e-01
286           	-7.458034e-02	1.200575e+00	5.339055e-01	1.923724e-01	3.415331e-01
287           	-7.457704e-02	1.200220e+00	5.334037e-01	1.921248e-01	3.412789e-01
288           	-7.457204e-02	1.199815e+00	5.329455e-01	1.919007e-01	3.410448e-01
289           	-7.456923e-02	1.199401e+00	5.325210e-01	1.916913e-01	3.408297e-01
290           	-7.456446e-02	1.198969e+00	5.321378e-01	1.915044e-01	3.406333e-01
291           	-7.455647e-02	1.198492e+00	5.317914e-01	1.913392e-01	3.404521e-01
292           	-7.454877e-02	1.197998e+00	5.314657e-01	1.911841e-01	3.402816e-01
293           	-7.454108e-02	1.197486e+00	5.311712e-01	1.910445e-01	3.401267e-01
294           	-7.453288e-02	1.196927e+00	5.309203e-01	1.909273e-01	3.399930e-01
295           	-7.452490e-02	1.196351e+00	5.307088e-01	1.908295e-01	3.398793e-01
296           	-7.451866e-02	1.195766e+00	5.305321e-01	1.907474e-01	3.397847e-01
297           	-7.451256e-02	1.195169e+00	5.303810e-01	1.906780e-01	3.397031e-01
298           	-7.450626e-02	1.194592e+00	5.302515e-01	1.906195e-01	3.396320e-01
299           	-7.450121e-02	1.194016e+00	5.301383e-01	1.905680e-01	3.395704e-01
300           	-7.449791e-02	1.193436e+00	5.300451e-01	1.905246e-01	3.395205e-01
301           	-7.449634e-02	1.192855e+00	5.299863e-01	1.904968e-01	3.394895e-01
302           	-7.449802e-02	1.192275e+00	5.299603e-01	1.904822e-01	3.394782e-01
303           	-7.450127e-02	1.191706e+00	5.299467e-01	1.904721e-01	3.394746e-01
304           	-7.450542e-02	1.191149e+00	5.299577e-01	1.904734e-01	3.394843e-01
305           	-7.451245e-02	1.190594e+00	5.299863e-01	1.904807e-01	3.395056e-01
306           	-7.452220e-02	1.190048e+00	5.300260e-01	1.904908e-01	3.395352e-01
307           	-7.453226e-02	1.189520e+00	5.300793e-01	1.905074e-01	3.395719e-01
308           	-7.454568e-02	1.189010e+00	5.301499e-01	1.905293e-01	3.396207e-01
309           	-7.456412e-02	1.188515e+00	5.302424e-01	1.905571e-01	3.396853e-01
310           	-7.458299e-02	1.188043e+00	5.303471e-01	1.905906e-01	3.397565e-01
311           	-7.460306e-02	1.187580e+00	5.304636e-01	1.906287e-01	3.398349e-01
312           	-7.462726e-02	1.187133e+00	5.305962e-01	1.906708e-01	3.399254e-01
313           	-7.465492e-02	1.186720e+00	5.307296e-01	1.907099e-01	3.400197e-01
314           	-7.468348e-02	1.186350e+00	5.308609e-01	1.907470e-01	3.401139e-01
315           	-7.471386e-02	1.185997e+00	5.310096e-01	1.907909e-01	3.402186e-01
316           	-7.474610e-02	1.185645e+00	5.311944e-01	1.908511e-01	3.403433e-01
317           	-7.478051e-02	1.185313e+00	5.313999e-01	1.909194e-01	3.404804e-01
318           	-7.481713e-02	1.185024e+00	5.316108e-01	1.909883e-01	3.406225e-01
319           	-7.485493e-02	1.184789e+00	5.318300e-01	1.910601e-01	3.407699e-01
320           	-7.489485e-02	1.184599e+00	5.320598e-01	1.911350e-01	3.409247e-01
321           	-7.493716e-02	1.184441e+00	5.323024e-01	1.912141e-01	3.410884e-01
322           	-7.498100e-02	1.184321e+00	5.325486e-01	1.912933e-01	3.412553e-01
323           	-7.502507e-02	1.184235e+00	5.327986e-01	1.913742e-01	3.414244e-01
324           	-7.506877e-02	1.184180e+00	5.330595e-01	1.914610e-01	3.415985e-01
325           	-7.511162e-02	1.184169e+00	5.333265e-01	1.915517e-01	3.417749e-01
326           	-7.515423e-02	1.184199e+00	5.335973e-01	1.916444e-01	3.419529e-01
327           	-7.519677e-02	1.184262e+00	5.338669e-01	1.917367e-01	3.421302e-01
328           	-7.524035e-02	1.184350e+00	5.341304e-01	1.918248e-01	3.423055e-01
329           	-7.528422e-02	1.184455e+00	5.343806e-01	1.919061e-01	3.424745e-01
330           	-7.532858e-02	1.184574e+00	5.346075e-01	1.919752e-01	3.426323e-01
331           	-7.537370e-02	1.184713e+00	5.348097e-01	1.920312e-01	3.427786e-01
332           	-7.541775e-02	1.184870e+00	5.349905e-01	1.920775e-01	3.429130e-01
333           	-7.546078e-02	1.185041e+00	5.351469e-01	1.921127e-01	3.430342e-01
334           	-7.550320e-02	1.185225e+00	5.352755e-01	1.921345e-01	3.431409e-01
335           	-7.554394e-02	1.185406e+00	5.353814e-01	1.921468e-01	3.432347e-01
336           	-7.558256e-02	1.185584e+00	5.354609e-01	1.921479e-01	3.433130e-01
337           	-7.561950e-02	1.185740e+00	5.355051e-01	1.921331e-01	3.433721e-01
338           	-7.564998e-02	1.185849e+00	5.355275e-01	1.921138e-01	3.434137e-01
339           	-7.567540e-02	1.185906e+00	5.355129e-01	1.920811e-01	3.434319e-01
340           	-7.569452e-02	1.185912e+00	5.354772e-01	1.920441e-01	3.434331e-01
341           	-7.570731e-02	1.185852e+00	5.354060e-01	1.919957e-01	3.434103e-01
342           	-7.571150e-02	1.185715e+00	5.353330e-01	1.919550e-01	3.433780e-01
343           	-7.571307e-02	1.185501e+00	5.352423e-01	1.919081e-01	3.433342e-01
344           	-7.571256e-02	1.185203e+00	5.351534e-01	1.918641e-01	3.432892e-01
345           	-7.570877e-02	1.184801e+00	5.350883e-01	1.918354e-01	3.432529e-01
346           	-7.570766e-02	1.184339e+00	5.350144e-01	1.917995e-01	3.432149e-01
347           	-7.571326e-02	1.183830e+00	5.349310e-01	1.917523e-01	3.431788e-01
348           	-7.572590e-02	1.183294e+00	5.348401e-01	1.916942e-01	3.431460e-01
349           	-7.574304e-02	1.182747e+00	5.347370e-01	1.916255e-01	3.431115e-01
350           	-7.576096e-02	1.182198e+00	5.346274e-01	1.915527e-01	3.430747e-01
351           	-7.577878e-02	1.181650e+00	5.345125e-01	1.914774e-01	3.430350e-01
352           	-7.579476e-02	1.181115e+00	5.343619e-01	1.913862e-01	3.429757e-01
353           	-7.581041e-02	1.180565e+00	5.341638e-01	1.912715e-01	3.428923e-01
354           	-7.582382e-02	1.179988e+00	5.339400e-01	1.911462e-01	3.427938e-01
355           	-7.583457e-02	1.179365e+00	5.337144e-01	1.910226e-01	3.426918e-01
356           	-7.584109e-02	1.178694e+00	5.335081e-01	1.909129e-01	3.425951e-01
357           	-7.584413e-02	1.177977e+00	5.333108e-01	1.908113e-01	3.424995e-01
358           	-7.584451e-02	1.177200e+00	5.331302e-01	1.907206e-01	3.424096e-01
359           	-7.584297e-02	1.176353e+00	5.329639e-01	1.906390e-01	3.423249e-01
360           	-7.583888e-02	1.175434e+00	5.328231e-01	1.905726e-01	3.422504e-01
361           	-7.583134e-02	1.174454e+00	5.327191e-01	1.905282e-01	3.421909e-01
362           	-7.581968e-02	1.173423e+00	5.326722e-01	1.905164e-01	3.421558e-01
363           	-7.580402e-02	1.172354e+00	5.326802e-01	1.905361e-01	3.421441e-01
364           	-7.578393e-02	1.171256e+00	5.327389e-01	1.905855e-01	3.421534e-01
365           	-7.575986e-02	1.170150e+00	5.328392e-01	1.906598e-01	3.421795e-01