0 	0 	0 	0
0.00184056 	0.0357805 	2.17209e-05 	0.0256452
0.00368111 	0.0741352 	4.04587e-05 	0.0534412
0.00558849 	0.109886 	0.000104371 	0.0800716
0.00749587 	0.148218 	0.000164135 	0.108531
0.00947248 	0.179371 	0.000274438 	0.132254
0.0114491 	0.212416 	0.000381791 	0.15698
0.0134975 	0.236226 	0.000525849 	0.175214
0.0155459 	0.261188 	0.000668391 	0.193721
0.0176687 	0.279303 	0.000840122 	0.207478
0.0197915 	0.298223 	0.00101158 	0.221203
0.0219913 	0.312812 	0.00121144 	0.232088
0.0241911 	0.328057 	0.0014131 	0.242834
0.0264709 	0.340413 	0.0016413 	0.251836
0.0287506 	0.353353 	0.00187468 	0.260662
0.0311131 	0.364222 	0.00213048 	0.268363
0.0334755 	0.375641 	0.00239535 	0.275881
0.0359238 	0.38546 	0.00267839 	0.28263
0.038372 	0.395809 	0.00297467 	0.2892
0.0409092 	0.404844 	0.00328472 	0.295218
0.0434463 	0.414398 	0.00361248 	0.301066
0.0440956 	0.416348 	0.00368998 	0.302449
0.0447449 	0.418299 	0.00376747 	0.303831
0.0467249 	0.425024 	0.00403811 	0.307805
0.0487048 	0.43175 	0.00430876 	0.31178
0.0514296 	0.43967 	0.00467241 	0.316737
0.0541543 	0.448092 	0.00506358 	0.321552
0.056978 	0.455589 	0.005454 	0.326107
0.0598016 	0.463581 	0.00587705 	0.330539
0.0627278 	0.470711 	0.00629426 	0.334751
0.0656539 	0.478325 	0.00674928 	0.338862
0.0686863 	0.48513 	0.00719324 	0.342781
0.0717187 	0.492408 	0.00768011 	0.346621
0.0748612 	0.498921 	0.00815065 	0.350289
0.0780037 	0.505891 	0.00866901 	0.353902
0.0812603 	0.512139 	0.00916573 	0.357353
0.0845169 	0.518826 	0.00971495 	0.360775
0.0853503 	0.520204 	0.00982956 	0.361583
0.0861838 	0.521581 	0.00994418 	0.36239
0.0887252 	0.526419 	0.0103803 	0.364848
0.0912666 	0.531256 	0.0108164 	0.367306
0.094764 	0.537038 	0.0113636 	0.370415
0.0982613 	0.543216 	0.0119713 	0.373549
0.101886 	0.548791 	0.0125423 	0.376524
0.10551 	0.55474 	0.0131771 	0.379557
0.106438 	0.555979 	0.013307 	0.380241
0.107365 	0.557219 	0.0134368 	0.380925
0.110194 	0.561539 	0.0139338 	0.383151
0.113022 	0.565859 	0.0144308 	0.385376
0.116914 	0.571065 	0.0150459 	0.388149
0.120806 	0.576606 	0.015729 	0.391048
0.121802 	0.577771 	0.0158684 	0.391673
0.122798 	0.578936 	0.0160077 	0.392299
0.125836 	0.582974 	0.0165376 	0.394454
0.128874 	0.587011 	0.0170674 	0.39661
0.132022 	0.590622 	0.0175421 	0.398549
0.135169 	0.594535 	0.0180852 	0.400688
0.136202 	0.595818 	0.0182634 	0.40139
0.137234 	0.597101 	0.0184415 	0.402091
0.138304 	0.598203 	0.0185897 	0.402672
0.139373 	0.599305 	0.0187379 	0.403253
0.142635 	0.603104 	0.0192922 	0.405386
0.145897 	0.606904 	0.0198465 	0.407519
0.150387 	0.611535 	0.0205295 	0.410081
0.154876 	0.616444 	0.0212773 	0.412916
0.159528 	0.62096 	0.021972 	0.415452
0.16418 	0.625744 	0.0227283 	0.418296
0.169001 	0.630157 	0.0234325 	0.420814
0.173822 	0.634827 	0.0241942 	0.423673
0.178818 	0.639147 	0.0249058 	0.426179
0.183814 	0.643716 	0.0256698 	0.429057
0.188992 	0.647954 	0.0263862 	0.431553
0.194169 	0.652433 	0.0271493 	0.43445
0.199535 	0.656599 	0.0278681 	0.436939
0.2049 	0.660998 	0.0286273 	0.439852
0.2049 	0.660998 	0.0286273 	0.439852
0.20815 	0.663303 	0.0290336 	0.441117
0.211399 	0.665831 	0.0294732 	0.442826
0.21371 	0.667629 	0.0297857 	0.444041
0.21602 	0.669426 	0.0300983 	0.445256
0.221782 	0.673475 	0.0308146 	0.447725
0.227544 	0.677734 	0.0315566 	0.450651
0.2315 	0.680321 	0.0320218 	0.452121
0.235456 	0.6831 	0.0325046 	0.454054
0.237472 	0.684517 	0.0327506 	0.455039
0.239487 	0.685933 	0.0329965 	0.456024
0.243104 	0.68818 	0.0334038 	0.457257
0.24672 	0.690597 	0.0338202 	0.458954
0.249292 	0.692316 	0.0341162 	0.46016
0.251863 	0.694035 	0.0344122 	0.461366
0.254779 	0.69576 	0.0347272 	0.462254
0.257695 	0.697603 	0.0350424 	0.463527
0.261191 	0.699828 	0.0354203 	0.465097
0.264688 	0.702052 	0.0357982 	0.466666
0.271334 	0.70597 	0.0364784 	0.469068
0.27798 	0.709993 	0.0371495 	0.471913
0.279322 	0.710743 	0.0372827 	0.472293
0.280663 	0.711492 	0.0374159 	0.472673
0.286208 	0.714672 	0.0379404 	0.47484
0.291753 	0.717865 	0.038461 	0.477095
0.29889 	0.721768 	0.0391086 	0.479452
0.306027 	0.725676 	0.0397287 	0.482198
0.313423 	0.729586 	0.0403568 	0.484532
0.320819 	0.733437 	0.0409487 	0.487216
0.328484 	0.737364 	0.0415554 	0.489525
0.336148 	0.741161 	0.0421177 	0.492142
0.344091 	0.745115 	0.0427009 	0.494428
0.352034 	0.748865 	0.0432327 	0.496974
0.360265 	0.752855 	0.0437908 	0.499238
0.368496 	0.756562 	0.0442916 	0.501711
0.377027 	0.760596 	0.0448224 	0.503955
0.385557 	0.764263 	0.0452911 	0.506355
0.394397 	0.768345 	0.0457923 	0.508581
0.403236 	0.771974 	0.0462278 	0.510906
0.412397 	0.776103 	0.0466967 	0.513114
0.421557 	0.779692 	0.0470973 	0.515365
0.431051 	0.783862 	0.047531 	0.517556
0.440544 	0.787405 	0.0478946 	0.519731
0.450382 	0.791608 	0.0482897 	0.521904
0.46022 	0.795093 	0.0486141 	0.524002
0.470415 	0.799314 	0.0489669 	0.526156
0.48061 	0.80273 	0.0492491 	0.528176
0.482805 	0.803796 	0.0493277 	0.52866
0.485 	0.804863 	0.0494063 	0.529144
0.493371 	0.807641 	0.049605 	0.530712
0.501741 	0.810279 	0.0497925 	0.532249
0.51269 	0.814474 	0.0500491 	0.534357
0.523639 	0.817698 	0.0502371 	0.536215
0.530271 	0.820555 	0.0503828 	0.537557
0.536902 	0.822366 	0.0504623 	0.538593
0.541617 	0.823654 	0.0505187 	0.539329
0.546332 	0.824942 	0.0505752 	0.540066
0.546332 	0.824942 	0.0505752 	0.540066
0.558091 	0.829007 	0.0507192 	0.54211
0.569849 	0.831962 	0.0507998 	0.543794
0.582034 	0.835917 	0.050882 	0.545795
0.594219 	0.838707 	0.0509044 	0.547387
0.606847 	0.842519 	0.0509216 	0.549337
0.619475 	0.845127 	0.0508835 	0.550831
0.632561 	0.848763 	0.0508329 	0.552718
0.645647 	0.851176 	0.0507323 	0.55411
0.659208 	0.854606 	0.0506117 	0.555923
0.67277 	0.856813 	0.0504471 	0.557208
0.686823 	0.860009 	0.050255 	0.558935
0.700877 	0.862003 	0.0500251 	0.56011
0.715441 	0.864943 	0.0497606 	0.561738
0.730005 	0.866724 	0.0494649 	0.562802
0.745097 	0.869388 	0.049128 	0.56432
0.76019 	0.870959 	0.0487664 	0.565275
0.762765 	0.871521 	0.0487023 	0.565598
0.76534 	0.872083 	0.0486383 	0.565922
0.778406 	0.873563 	0.048288 	0.566813
0.791472 	0.874707 	0.0479315 	0.56752
0.792806 	0.874956 	0.0478934 	0.56767
0.794141 	0.875205 	0.0478552 	0.567819
0.809015 	0.876894 	0.0474145 	0.568854
0.823889 	0.877975 	0.0469651 	0.569536
0.828037 	0.878625 	0.0468337 	0.569943
0.832185 	0.879275 	0.0467023 	0.57035
0.844834 	0.880029 	0.0462884 	0.570836
0.857483 	0.880784 	0.0458746 	0.571321
0.87489 	0.882319 	0.0452742 	0.57233
0.892297 	0.883161 	0.0446676 	0.572885
0.910336 	0.884439 	0.0440129 	0.573765
0.928375 	0.885137 	0.0433515 	0.574242
0.947068 	0.886177 	0.0426478 	0.575002
0.965762 	0.886745 	0.0419344 	0.575415
0.985136 	0.887568 	0.0411863 	0.576066
1.00451 	0.888017 	0.0404245 	0.576426
1.02458 	0.888647 	0.0396363 	0.576984
1.04466 	0.888985 	0.0388304 	0.577301
1.06546 	0.889445 	0.0380063 	0.577786
1.08627 	0.889681 	0.0371613 	0.578067
1.08627 	0.889681 	0.0371613 	0.578067
1.10783 	0.889992 	0.0363056 	0.578495
1.12939 	0.890132 	0.0354266 	0.578746
1.15173 	0.890312 	0.0345439 	0.579129
1.17408 	0.890364 	0.0336361 	0.579355
1.19723 	0.890426 	0.0327315 	0.579704
1.22038 	0.890394 	0.0318001 	0.579909
1.24438 	0.890347 	0.0308782 	0.580232
1.26837 	0.890235 	0.0299284 	0.580419
1.29324 	0.890087 	0.028994 	0.580721
1.3181 	0.889899 	0.0280315 	0.580892
1.34387 	0.889655 	0.0270893 	0.581175
1.36964 	0.889392 	0.0261199 	0.581331
1.39634 	0.889056 	0.0251752 	0.581598
1.42305 	0.888721 	0.024205 	0.581739
1.45072 	0.888298 	0.0232633 	0.581988
1.4784 	0.887895 	0.0222984 	0.582112
1.50708 	0.887391 	0.0213656 	0.582343
1.53576 	0.886924 	0.0204122 	0.582447
1.56548 	0.886345 	0.0194944 	0.582657
1.5952 	0.885819 	0.0185586 	0.58274
1.626 	0.885175 	0.0176621 	0.582926
1.65679 	0.884598 	0.0167502 	0.582986
1.68871 	0.883898 	0.0158811 	0.583145
1.72063 	0.883277 	0.0149994 	0.583178
1.75371 	0.882532 	0.0141643 	0.583307
1.78678 	0.881877 	0.0133191 	0.583312
1.82106 	0.881099 	0.0125241 	0.583408
1.85533 	0.880421 	0.0117212 	0.583383
1.89086 	0.879623 	0.0109716 	0.583445
1.92638 	0.87893 	0.0102165 	0.583388
1.96319 	0.878135 	0.0095244 	0.583417
2 	0.877446 	0.00882888 	0.583332
2 	0.877446 	0.00882888 	0.583332
2.03636 	0.876666 	0.00819615 	0.583333
2.07273 	0.875989 	0.0075622 	0.583224
