1 	0 	0 	0
1.00104 	0.0524698 	0.279584 	0.115347
1.00208 	0.10494 	0.559168 	0.230694
1.00316 	0.0946602 	0.561366 	0.252577
1.00425 	0.0855712 	0.56581 	0.279388
1.00538 	0.0943493 	0.562349 	0.285061
1.00651 	0.100375 	0.556508 	0.292577
1.00769 	0.117793 	0.562784 	0.298779
1.00887 	0.122533 	0.563287 	0.30158
1.01009 	0.145921 	0.572413 	0.310322
1.01132 	0.148722 	0.569705 	0.310714
1.0126 	0.1727 	0.579564 	0.31981
1.01387 	0.177147 	0.571081 	0.318334
1.0152 	0.199559 	0.581774 	0.326869
1.01652 	0.208872 	0.575607 	0.326763
1.01652 	0.208872 	0.575607 	0.326763
1.0179 	0.231041 	0.587359 	0.335146
1.01929 	0.244049 	0.586616 	0.337149
1.02073 	0.265499 	0.598651 	0.34519
1.02217 	0.28226 	0.603494 	0.349512
1.02367 	0.302899 	0.615118 	0.356921
1.02517 	0.322464 	0.624849 	0.363361
1.02574 	0.329823 	0.628736 	0.365795
1.02632 	0.337182 	0.632622 	0.368229
1.0273 	0.341695 	0.63542 	0.368895
1.02829 	0.346208 	0.638217 	0.36956
1.02992 	0.355623 	0.642455 	0.371458
1.03155 	0.362321 	0.644979 	0.371622
1.03324 	0.375673 	0.651197 	0.375992
1.03493 	0.381571 	0.651809 	0.375512
1.03669 	0.39883 	0.660673 	0.382632
1.03846 	0.404351 	0.65879 	0.381756
1.04029 	0.424977 	0.671336 	0.391329
1.04213 	0.430888 	0.667785 	0.390257
1.04404 	0.450223 	0.67961 	0.398905
1.04596 	0.460028 	0.67918 	0.400411
1.04795 	0.478034 	0.689776 	0.407813
1.04994 	0.491286 	0.693412 	0.411602
1.04994 	0.491286 	0.693412 	0.411602
1.05201 	0.508189 	0.702624 	0.417827
1.05409 	0.524077 	0.710154 	0.423258
1.05482 	0.529406 	0.712746 	0.424997
1.05556 	0.534734 	0.715337 	0.426737
1.05698 	0.540096 	0.716147 	0.427558
1.05841 	0.545457 	0.716957 	0.42838
1.06066 	0.556275 	0.719338 	0.431229
1.0629 	0.56394 	0.718599 	0.431956
1.06525 	0.578151 	0.723854 	0.437088
1.06759 	0.585585 	0.721056 	0.437482
1.07003 	0.602059 	0.729363 	0.444222
1.07246 	0.609258 	0.725169 	0.444471
1.075 	0.625195 	0.732813 	0.450618
1.07754 	0.634619 	0.730953 	0.452304
1.08019 	0.648762 	0.73635 	0.457206
1.08283 	0.660356 	0.73745 	0.460298
1.08553 	0.672833 	0.740513 	0.463962
1.08824 	0.68531 	0.743577 	0.467626
1.08828 	0.685453 	0.743552 	0.467652
1.08833 	0.685595 	0.743526 	0.467679
1.0912 	0.6938 	0.740442 	0.468817
1.09407 	0.701941 	0.737282 	0.469913
1.09706 	0.712845 	0.737089 	0.4728
1.10004 	0.720542 	0.732806 	0.473644
1.10315 	0.732819 	0.734565 	0.477462
1.10625 	0.73999 	0.729045 	0.47809
1.10949 	0.751895 	0.730218 	0.481513
1.11273 	0.759989 	0.725286 	0.482673
1.1161 	0.770566 	0.724581 	0.485201
1.11947 	0.779744 	0.7216 	0.487038
1.12224 	0.786883 	0.71984 	0.488509
1.125 	0.794021 	0.71808 	0.48998
1.12575 	0.79552 	0.717025 	0.490218
1.12649 	0.797018 	0.715969 	0.490456
1.13014 	0.804088 	0.710178 	0.49162
1.13379 	0.810673 	0.703758 	0.492545
1.1376 	0.818641 	0.699502 	0.494322
1.14141 	0.82453 	0.692195 	0.49517
1.14537 	0.832694 	0.688869 	0.497101
1.14933 	0.837814 	0.680762 	0.4979
1.15346 	0.844747 	0.675836 	0.499437
1.15758 	0.850448 	0.668831 	0.500567
1.16188 	0.856079 	0.662863 	0.501865
1.16618 	0.861666 	0.656801 	0.503149
1.16643 	0.861915 	0.656417 	0.503211
1.16667 	0.862165 	0.656033 	0.503273
1.1709 	0.865618 	0.647733 	0.504221
1.17513 	0.869071 	0.639434 	0.505168
1.17979 	0.872941 	0.63145 	0.50641
1.18445 	0.875871 	0.621909 	0.507362
1.1893 	0.879455 	0.614586 	0.508709
1.19415 	0.881904 	0.604812 	0.509638
1.19921 	0.884317 	0.596618 	0.510866
1.20426 	0.886705 	0.587638 	0.511931
1.20928 	0.888142 	0.57929 	0.513038
1.21429 	0.889579 	0.570942 	0.514145
1.21454 	0.889631 	0.570482 	0.514198
1.21478 	0.889684 	0.570022 	0.51425
1.21478 	0.889684 	0.570022 	0.51425
1.22026 	0.890745 	0.560098 	0.515355
1.22026 	0.890745 	0.560098 	0.515355
1.22574 	0.891807 	0.550138 	0.516453
1.22574 	0.891807 	0.550138 	0.516453
1.23144 	0.892566 	0.540864 	0.51766
1.23144 	0.892566 	0.540864 	0.51766
1.23714 	0.894018 	0.53125 	0.518702
1.23714 	0.894018 	0.53125 	0.518702
1.24308 	0.894059 	0.522192 	0.51997
1.24903 	0.895831 	0.513095 	0.520989
1.25521 	0.896247 	0.504342 	0.522185
1.2614 	0.897308 	0.495635 	0.523301
1.26532 	0.897862 	0.490572 	0.523993
1.26923 	0.898415 	0.485508 	0.524684
1.27176 	0.898784 	0.481956 	0.525136
1.27428 	0.899154 	0.478404 	0.525588
1.28099 	0.900067 	0.469767 	0.526755
1.2877 	0.901315 	0.46111 	0.52788
1.29468 	0.901719 	0.452906 	0.529109
1.30167 	0.903088 	0.44459 	0.530213
1.30167 	0.903088 	0.44459 	0.530213
1.30894 	0.903442 	0.436713 	0.531445
1.30894 	0.903442 	0.436713 	0.531445
1.31621 	0.904487 	0.428723 	0.532581
1.31621 	0.904487 	0.428723 	0.532581
1.32378 	0.904951 	0.421079 	0.533784
1.32378 	0.904951 	0.421079 	0.533784
1.33136 	0.905487 	0.413424 	0.534977
1.33136 	0.905487 	0.413424 	0.534977
1.33234 	0.905555 	0.4125 	0.535123
1.33333 	0.905623 	0.411577 	0.535268
1.33333 	0.905623 	0.411577 	0.535268
1.34023 	0.906045 	0.404592 	0.536323
1.34023 	0.906045 	0.404592 	0.536323
1.34713 	0.906468 	0.397608 	0.537377
1.34713 	0.906468 	0.397608 	0.537377
1.35535 	0.906581 	0.390025 	0.538611
1.36356 	0.907153 	0.38232 	0.539777
1.37211 	0.906919 	0.375072 	0.541034
1.38066 	0.907511 	0.367633 	0.542175
1.38957 	0.907408 	0.360606 	0.543388
1.39847 	0.907596 	0.353524 	0.544561
1.40378 	0.907609 	0.349645 	0.545229
1.40909 	0.907622 	0.345765 	0.545897
1.41306 	0.90759 	0.342677 	0.546415
1.41702 	0.907559 	0.339589 	0.546933
1.42667 	0.907408 	0.332679 	0.548123
1.43633 	0.907447 	0.32571 	0.549289
1.44638 	0.906978 	0.319148 	0.550487
1.45644 	0.907117 	0.312411 	0.55161
1.46691 	0.906648 	0.306108 	0.552771
1.47738 	0.906605 	0.299702 	0.553879
1.48829 	0.906252 	0.293624 	0.554985
1.49919 	0.905913 	0.287544 	0.55609
1.4996 	0.905903 	0.287331 	0.556128
1.50001 	0.905894 	0.287119 	0.556166
1.51095 	0.90555 	0.28114 	0.557227
1.52189 	0.905206 	0.275161 	0.558287
1.53372 	0.90462 	0.269289 	0.559369
1.54554 	0.904363 	0.263301 	0.560416
1.55785 	0.90362 	0.257726 	0.561465
1.57016 	0.903389 	0.251998 	0.562458
1.58298 	0.902746 	0.246605 	0.563451
1.5958 	0.90228 	0.241167 	0.564423
1.60346 	0.901962 	0.238169 	0.564963
1.61112 	0.901643 	0.235172 	0.565502
1.61681 	0.901364 	0.232845 	0.56592
1.6225 	0.901084 	0.230519 	0.566338
1.6364 	0.900405 	0.225306 	0.567267
1.6503 	0.899839 	0.220049 	0.568187
1.66478 	0.898989 	0.215115 	0.569078
1.67925 	0.898496 	0.210059 	0.569937
1.67925 	0.898496 	0.210059 	0.569937
1.69433 	0.897626 	0.20531 	0.570781
1.7094 	0.89706 	0.200468 	0.571599
1.7251 	0.89627 	0.195866 	0.572386
1.74079 	0.895544 	0.191246 	0.573168
1.7454 	0.895342 	0.189996 	0.573373
1.75001 	0.89514 	0.188746 	0.573578
1.76175 	0.894565 	0.185451 	0.574121
1.77348 	0.89399 	0.182156 	0.574664
1.7905 	0.893116 	0.177771 	0.575367
1.80751 	0.892379 	0.173333 	0.576063
1.82524 	0.891394 	0.169141 	0.57672
1.84296 	0.890718 	0.164846 	0.577362
1.86142 	0.889756 	0.16082 	0.577961
1.87987 	0.889002 	0.156729 	0.57855
1.89909 	0.888094 	0.152762 	0.579087
1.9183 	0.887227 	0.148787 	0.579621
1.92343 	0.887006 	0.147855 	0.579744
1.92856 	0.886785 	0.146924 	0.579867
1.94344 	0.886102 	0.144148 	0.58024
1.95832 	0.885418 	0.141372 	0.580613
1.97916 	0.884563 	0.136964 	0.581165
2 	0.883825 	0.132504 	0.581715
