# Force coefficients
# liftDir     : (0.000000e+00 0.000000e+00 1.000000e+00)
# dragDir     : (1.000000e+00 0.000000e+00 0.000000e+00)
# pitchAxis   : (0.000000e+00 1.000000e+00 0.000000e+00)
# magUInf     : 1.000000e+00
# lRef        : 1.000000e+00
# Aref        : 1.000000e+00
# CofR        : (2.500000e+00 0.000000e+00 0.000000e+00)
#
# Time        	Cm            	Cd            	Cl            	Cl(f)         	Cl(r)         
1             	-3.792604e-04	8.608364e-01	-2.151287e-02	-1.113569e-02	-1.037717e-02
2             	-1.061447e-03	1.431532e+00	-1.166029e-02	-6.891594e-03	-4.768701e-03
3             	-9.997741e-04	1.967923e+00	3.384051e-02	1.592048e-02	1.792003e-02
4             	8.165954e-05	2.164800e+00	9.821552e-02	4.918942e-02	4.902610e-02
5             	1.442089e-03	2.064849e+00	1.698236e-01	8.635391e-02	8.346973e-02
6             	2.393141e-03	1.809126e+00	2.394782e-01	1.221322e-01	1.173459e-01
7             	2.916002e-03	1.531547e+00	3.035638e-01	1.546979e-01	1.488659e-01
8             	3.572614e-03	1.327959e+00	3.618798e-01	1.845125e-01	1.773673e-01
9             	4.476228e-03	1.227963e+00	4.156526e-01	2.123025e-01	2.033501e-01
10            	5.824769e-03	1.214222e+00	4.669196e-01	2.392846e-01	2.276350e-01
11            	7.533487e-03	1.247332e+00	5.191565e-01	2.671117e-01	2.520447e-01
12            	9.828359e-03	1.292182e+00	5.731382e-01	2.963974e-01	2.767407e-01
13            	1.255140e-02	1.323186e+00	6.278582e-01	3.264805e-01	3.013777e-01
14            	1.575684e-02	1.330802e+00	6.830314e-01	3.572725e-01	3.257589e-01
15            	1.922435e-02	1.318596e+00	7.372570e-01	3.878528e-01	3.494041e-01
16            	2.272327e-02	1.294840e+00	7.902708e-01	4.178586e-01	3.724121e-01
17            	2.592431e-02	1.266809e+00	8.395756e-01	4.457121e-01	3.938635e-01
18            	2.898986e-02	1.241275e+00	8.839195e-01	4.709496e-01	4.129699e-01
19            	3.193437e-02	1.224716e+00	9.238672e-01	4.938680e-01	4.299992e-01
20            	3.477857e-02	1.219180e+00	9.611955e-01	5.153763e-01	4.458192e-01
21            	3.707620e-02	1.222047e+00	9.962092e-01	5.351808e-01	4.610284e-01
22            	3.860683e-02	1.230119e+00	1.030581e+00	5.538971e-01	4.766834e-01
23            	3.931157e-02	1.239979e+00	1.063854e+00	5.712384e-01	4.926152e-01
24            	3.900346e-02	1.249181e+00	1.094150e+00	5.860786e-01	5.080717e-01
25            	3.723614e-02	1.257327e+00	1.120443e+00	5.974578e-01	5.229855e-01
26            	3.365604e-02	1.265018e+00	1.142491e+00	6.049015e-01	5.375894e-01
27            	2.819343e-02	1.273821e+00	1.160261e+00	6.083240e-01	5.519371e-01
28            	2.094094e-02	1.284441e+00	1.172825e+00	6.073533e-01	5.654714e-01
29            	1.204175e-02	1.296810e+00	1.179779e+00	6.019311e-01	5.778476e-01
30            	1.732456e-03	1.310846e+00	1.181578e+00	5.925212e-01	5.890563e-01
31            	-9.701956e-03	1.326694e+00	1.178306e+00	5.794509e-01	5.988549e-01
32            	-2.190145e-02	1.344124e+00	1.170654e+00	5.634258e-01	6.072287e-01
33            	-3.454933e-02	1.363077e+00	1.159840e+00	5.453706e-01	6.144692e-01
34            	-4.727501e-02	1.383702e+00	1.147273e+00	5.263615e-01	6.209115e-01
35            	-5.971051e-02	1.405353e+00	1.133900e+00	5.072395e-01	6.266606e-01
36            	-7.147300e-02	1.427168e+00	1.120185e+00	4.886196e-01	6.315656e-01
37            	-8.231989e-02	1.448611e+00	1.105826e+00	4.705933e-01	6.352330e-01
38            	-9.195397e-02	1.469172e+00	1.091133e+00	4.536128e-01	6.375207e-01
39            	-1.002238e-01	1.488148e+00	1.077703e+00	4.386277e-01	6.390752e-01
40            	-1.071594e-01	1.504357e+00	1.066082e+00	4.258817e-01	6.402005e-01
41            	-1.128410e-01	1.516874e+00	1.056341e+00	4.153295e-01	6.410115e-01
42            	-1.174125e-01	1.526156e+00	1.047881e+00	4.065281e-01	6.413531e-01
43            	-1.210144e-01	1.533206e+00	1.040557e+00	3.992639e-01	6.412927e-01
44            	-1.239821e-01	1.538654e+00	1.033840e+00	3.929376e-01	6.409019e-01
45            	-1.266808e-01	1.543088e+00	1.026717e+00	3.866776e-01	6.400392e-01
46            	-1.292743e-01	1.547421e+00	1.019072e+00	3.802617e-01	6.388102e-01
47            	-1.318443e-01	1.552801e+00	1.010939e+00	3.736254e-01	6.373140e-01
48            	-1.344896e-01	1.559390e+00	1.002275e+00	3.666480e-01	6.356273e-01
49            	-1.373368e-01	1.566957e+00	9.924519e-01	3.588892e-01	6.335627e-01
50            	-1.403388e-01	1.575189e+00	9.805380e-01	3.499302e-01	6.306078e-01
51            	-1.433641e-01	1.583723e+00	9.659264e-01	3.395991e-01	6.263273e-01
52            	-1.461707e-01	1.592266e+00	9.478767e-01	3.277676e-01	6.201091e-01
53            	-1.485087e-01	1.600670e+00	9.259362e-01	3.144594e-01	6.114768e-01
54            	-1.501440e-01	1.609137e+00	9.001044e-01	2.999082e-01	6.001962e-01
55            	-1.508692e-01	1.617789e+00	8.709512e-01	2.846064e-01	5.863448e-01
56            	-1.505879e-01	1.626566e+00	8.398139e-01	2.693191e-01	5.704948e-01
57            	-1.493851e-01	1.635232e+00	8.077446e-01	2.544872e-01	5.532574e-01
58            	-1.474726e-01	1.643624e+00	7.753412e-01	2.401980e-01	5.351431e-01
59            	-1.450815e-01	1.651851e+00	7.435456e-01	2.266913e-01	5.168543e-01
60            	-1.424174e-01	1.659962e+00	7.135155e-01	2.143404e-01	4.991752e-01
61            	-1.396881e-01	1.667860e+00	6.861754e-01	2.033997e-01	4.827758e-01
62            	-1.370761e-01	1.675295e+00	6.616994e-01	1.937736e-01	4.679258e-01
63            	-1.346785e-01	1.682047e+00	6.399307e-01	1.852868e-01	4.546439e-01
64            	-1.325063e-01	1.687964e+00	6.209927e-01	1.779901e-01	4.430026e-01
65            	-1.305392e-01	1.693238e+00	6.048281e-01	1.718749e-01	4.329532e-01
66            	-1.287175e-01	1.698115e+00	5.908745e-01	1.667197e-01	4.241548e-01
67            	-1.270144e-01	1.702448e+00	5.788560e-01	1.624136e-01	4.164424e-01
68            	-1.254722e-01	1.706344e+00	5.684345e-01	1.587451e-01	4.096895e-01
69            	-1.240711e-01	1.709681e+00	5.593436e-01	1.556007e-01	4.037429e-01
70            	-1.227625e-01	1.712331e+00	5.514507e-01	1.529628e-01	3.984879e-01
71            	-1.215324e-01	1.714454e+00	5.445312e-01	1.507332e-01	3.937980e-01
72            	-1.203481e-01	1.715879e+00	5.385163e-01	1.489100e-01	3.896063e-01
73            	-1.192463e-01	1.716360e+00	5.329800e-01	1.472437e-01	3.857363e-01
74            	-1.182756e-01	1.715724e+00	5.276179e-01	1.455334e-01	3.820845e-01
75            	-1.173877e-01	1.713449e+00	5.226760e-01	1.439503e-01	3.787258e-01
76            	-1.165424e-01	1.709324e+00	5.183964e-01	1.426558e-01	3.757406e-01
77            	-1.157684e-01	1.703598e+00	5.148784e-01	1.416708e-01	3.732076e-01
78            	-1.151562e-01	1.696925e+00	5.120832e-01	1.408854e-01	3.711978e-01
79            	-1.148021e-01	1.689941e+00	5.097731e-01	1.400844e-01	3.696887e-01
80            	-1.147707e-01	1.682940e+00	5.074764e-01	1.389675e-01	3.685089e-01
81            	-1.150207e-01	1.676185e+00	5.049491e-01	1.374539e-01	3.674952e-01
82            	-1.154677e-01	1.669780e+00	5.022517e-01	1.356582e-01	3.665935e-01
83            	-1.160031e-01	1.663603e+00	4.994863e-01	1.337400e-01	3.657463e-01
84            	-1.165135e-01	1.657438e+00	4.968342e-01	1.319036e-01	3.649306e-01
85            	-1.169125e-01	1.651061e+00	4.944816e-01	1.303283e-01	3.641533e-01
86            	-1.171301e-01	1.644216e+00	4.925068e-01	1.291233e-01	3.633835e-01
87            	-1.171198e-01	1.636915e+00	4.910430e-01	1.284016e-01	3.626413e-01
88            	-1.168819e-01	1.629309e+00	4.901782e-01	1.282072e-01	3.619710e-01
89            	-1.164580e-01	1.621535e+00	4.898400e-01	1.284620e-01	3.613780e-01
90            	-1.158911e-01	1.613659e+00	4.900672e-01	1.291425e-01	3.609247e-01
91            	-1.151994e-01	1.605578e+00	4.908642e-01	1.302327e-01	3.606315e-01
92            	-1.144228e-01	1.597349e+00	4.921834e-01	1.316689e-01	3.605145e-01
93            	-1.136016e-01	1.589023e+00	4.939974e-01	1.333970e-01	3.606003e-01
94            	-1.127752e-01	1.580653e+00	4.962753e-01	1.353624e-01	3.609129e-01
95            	-1.119768e-01	1.572345e+00	4.989578e-01	1.375021e-01	3.614558e-01
96            	-1.112087e-01	1.564333e+00	5.019635e-01	1.397730e-01	3.621905e-01
97            	-1.104979e-01	1.556835e+00	5.051215e-01	1.420629e-01	3.630586e-01
98            	-1.098598e-01	1.549962e+00	5.083491e-01	1.443148e-01	3.640343e-01
99            	-1.093151e-01	1.543689e+00	5.115776e-01	1.464737e-01	3.651039e-01
100           	-1.088713e-01	1.538025e+00	5.146734e-01	1.484654e-01	3.662080e-01
101           	-1.085295e-01	1.532918e+00	5.174924e-01	1.502167e-01	3.672756e-01
102           	-1.082810e-01	1.528334e+00	5.199473e-01	1.516926e-01	3.682547e-01
103           	-1.081013e-01	1.524184e+00	5.220424e-01	1.529199e-01	3.691225e-01
104           	-1.079676e-01	1.520428e+00	5.238061e-01	1.539355e-01	3.698706e-01
105           	-1.078652e-01	1.516993e+00	5.251753e-01	1.547225e-01	3.704528e-01
106           	-1.077932e-01	1.513781e+00	5.261295e-01	1.552716e-01	3.708579e-01
107           	-1.077564e-01	1.510742e+00	5.267048e-01	1.555960e-01	3.711088e-01
108           	-1.077620e-01	1.507883e+00	5.269406e-01	1.557083e-01	3.712323e-01
109           	-1.078023e-01	1.505238e+00	5.268938e-01	1.556446e-01	3.712491e-01
110           	-1.078662e-01	1.502841e+00	5.265944e-01	1.554310e-01	3.711635e-01
111           	-1.079583e-01	1.500706e+00	5.260558e-01	1.550696e-01	3.709862e-01
112           	-1.080835e-01	1.498809e+00	5.253256e-01	1.545793e-01	3.707463e-01
113           	-1.082344e-01	1.497091e+00	5.244901e-01	1.540106e-01	3.704795e-01
114           	-1.084166e-01	1.495531e+00	5.235556e-01	1.533612e-01	3.701944e-01
115           	-1.086266e-01	1.494058e+00	5.225211e-01	1.526339e-01	3.698871e-01
116           	-1.088686e-01	1.492629e+00	5.213333e-01	1.517981e-01	3.695353e-01
117           	-1.091454e-01	1.491249e+00	5.199082e-01	1.508087e-01	3.690994e-01
118           	-1.094485e-01	1.489928e+00	5.182096e-01	1.496563e-01	3.685533e-01
119           	-1.097807e-01	1.488622e+00	5.162347e-01	1.483366e-01	3.678980e-01
120           	-1.101352e-01	1.487339e+00	5.140310e-01	1.468803e-01	3.671507e-01
121           	-1.105202e-01	1.486067e+00	5.115972e-01	1.452784e-01	3.663189e-01
122           	-1.109272e-01	1.484762e+00	5.089045e-01	1.435251e-01	3.653794e-01
123           	-1.113483e-01	1.483417e+00	5.059748e-01	1.416391e-01	3.643357e-01
124           	-1.117848e-01	1.482002e+00	5.028210e-01	1.396257e-01	3.631953e-01
125           	-1.122282e-01	1.480477e+00	4.994995e-01	1.375216e-01	3.619779e-01
126           	-1.126669e-01	1.478904e+00	4.960478e-01	1.353569e-01	3.606908e-01
127           	-1.131113e-01	1.477301e+00	4.924858e-01	1.331315e-01	3.593542e-01
128           	-1.135500e-01	1.475723e+00	4.888619e-01	1.308809e-01	3.579810e-01
129           	-1.139914e-01	1.474236e+00	4.851753e-01	1.285963e-01	3.565790e-01
130           	-1.144393e-01	1.472878e+00	4.814260e-01	1.262738e-01	3.551523e-01
131           	-1.148901e-01	1.471627e+00	4.776378e-01	1.239288e-01	3.537090e-01
132           	-1.153391e-01	1.470473e+00	4.738046e-01	1.215632e-01	3.522414e-01
133           	-1.157785e-01	1.469399e+00	4.699375e-01	1.191902e-01	3.507473e-01
134           	-1.162119e-01	1.468319e+00	4.660090e-01	1.167926e-01	3.492164e-01
135           	-1.166327e-01	1.467171e+00	4.620168e-01	1.143757e-01	3.476411e-01
136           	-1.170340e-01	1.466015e+00	4.580043e-01	1.119681e-01	3.460362e-01
137           	-1.174092e-01	1.464888e+00	4.539982e-01	1.095899e-01	3.444084e-01
138           	-1.177616e-01	1.463793e+00	4.499627e-01	1.072197e-01	3.427430e-01
139           	-1.180965e-01	1.462790e+00	4.458562e-01	1.048316e-01	3.410246e-01
140           	-1.184071e-01	1.461933e+00	4.416973e-01	1.024416e-01	3.392557e-01
141           	-1.186855e-01	1.461195e+00	4.375300e-01	1.000795e-01	3.374506e-01
142           	-1.189316e-01	1.460562e+00	4.333258e-01	9.773125e-02	3.355945e-01
143           	-1.191548e-01	1.460060e+00	4.290548e-01	9.537261e-02	3.336822e-01
144           	-1.193479e-01	1.459721e+00	4.247606e-01	9.303243e-02	3.317282e-01
145           	-1.195079e-01	1.459581e+00	4.205006e-01	9.074235e-02	3.297582e-01
146           	-1.196444e-01	1.459664e+00	4.162957e-01	8.850345e-02	3.277922e-01
147           	-1.197641e-01	1.459954e+00	4.121846e-01	8.632822e-02	3.258564e-01
148           	-1.198657e-01	1.460397e+00	4.081907e-01	8.422964e-02	3.239610e-01
149           	-1.199488e-01	1.460952e+00	4.042959e-01	8.219909e-02	3.220968e-01
150           	-1.200160e-01	1.461586e+00	4.005408e-01	8.025442e-02	3.202864e-01
151           	-1.200817e-01	1.462273e+00	3.969379e-01	7.838723e-02	3.185506e-01
152           	-1.201421e-01	1.463004e+00	3.935079e-01	7.661184e-02	3.168960e-01
153           	-1.201942e-01	1.463793e+00	3.902478e-01	7.492969e-02	3.153181e-01
154           	-1.202437e-01	1.464620e+00	3.871582e-01	7.333543e-02	3.138228e-01
155           	-1.202905e-01	1.465465e+00	3.842462e-01	7.183263e-02	3.124135e-01
156           	-1.203339e-01	1.466330e+00	3.815258e-01	7.042905e-02	3.110968e-01
157           	-1.203723e-01	1.467188e+00	3.790345e-01	6.914496e-02	3.098896e-01
158           	-1.204044e-01	1.468039e+00	3.767474e-01	6.796928e-02	3.087781e-01
159           	-1.204300e-01	1.468851e+00	3.746571e-01	6.689851e-02	3.077586e-01
160           	-1.204459e-01	1.469588e+00	3.727278e-01	6.591804e-02	3.068097e-01
161           	-1.204471e-01	1.470233e+00	3.709270e-01	6.501643e-02	3.059105e-01
162           	-1.204315e-01	1.470771e+00	3.692135e-01	6.417522e-02	3.050383e-01
163           	-1.203926e-01	1.471170e+00	3.675665e-01	6.339061e-02	3.041758e-01
164           	-1.203240e-01	1.471405e+00	3.659537e-01	6.265283e-02	3.033009e-01
165           	-1.202213e-01	1.471472e+00	3.643639e-01	6.196065e-02	3.024033e-01
166           	-1.200746e-01	1.471381e+00	3.627976e-01	6.132420e-02	3.014734e-01
167           	-1.198814e-01	1.471127e+00	3.612269e-01	6.073206e-02	3.004949e-01
168           	-1.196394e-01	1.470713e+00	3.596228e-01	6.017196e-02	2.994508e-01
169           	-1.193412e-01	1.470148e+00	3.579499e-01	5.963377e-02	2.983162e-01
170           	-1.189911e-01	1.469454e+00	3.561948e-01	5.910630e-02	2.970885e-01
171           	-1.185941e-01	1.468627e+00	3.544065e-01	5.860918e-02	2.957973e-01
172           	-1.181496e-01	1.467641e+00	3.526277e-01	5.816425e-02	2.944634e-01
173           	-1.176571e-01	1.466567e+00	3.508934e-01	5.778957e-02	2.931039e-01
174           	-1.171258e-01	1.465454e+00	3.491992e-01	5.747385e-02	2.917254e-01
175           	-1.165676e-01	1.464319e+00	3.475653e-01	5.721501e-02	2.903503e-01
176           	-1.159877e-01	1.463141e+00	3.459855e-01	5.700505e-02	2.889804e-01
177           	-1.153845e-01	1.461929e+00	3.444307e-01	5.683089e-02	2.875998e-01
178           	-1.147711e-01	1.460721e+00	3.428902e-01	5.667399e-02	2.862162e-01
179           	-1.141643e-01	1.459570e+00	3.413969e-01	5.653414e-02	2.848628e-01
180           	-1.135754e-01	1.458505e+00	3.399973e-01	5.642326e-02	2.835740e-01
181           	-1.130093e-01	1.457546e+00	3.387067e-01	5.634400e-02	2.823627e-01
182           	-1.124673e-01	1.456677e+00	3.375558e-01	5.631059e-02	2.812452e-01
183           	-1.119581e-01	1.455840e+00	3.365501e-01	5.631694e-02	2.802331e-01
184           	-1.114768e-01	1.455016e+00	3.356739e-01	5.636015e-02	2.793137e-01
185           	-1.110232e-01	1.454214e+00	3.349085e-01	5.643104e-02	2.784775e-01
186           	-1.106011e-01	1.453421e+00	3.342436e-01	5.652069e-02	2.777229e-01
187           	-1.102115e-01	1.452628e+00	3.336733e-01	5.662515e-02	2.770482e-01
188           	-1.098529e-01	1.451837e+00	3.331556e-01	5.672491e-02	2.764307e-01
189           	-1.095208e-01	1.451032e+00	3.326541e-01	5.680626e-02	2.758478e-01
190           	-1.092118e-01	1.450197e+00	3.321973e-01	5.688685e-02	2.753105e-01
191           	-1.089250e-01	1.449316e+00	3.318083e-01	5.697917e-02	2.748292e-01
192           	-1.086618e-01	1.448441e+00	3.314918e-01	5.708412e-02	2.744077e-01
193           	-1.084193e-01	1.447606e+00	3.312456e-01	5.720354e-02	2.740420e-01
194           	-1.081925e-01	1.446775e+00	3.310668e-01	5.734095e-02	2.737259e-01
195           	-1.079788e-01	1.445935e+00	3.309587e-01	5.750056e-02	2.734581e-01
196           	-1.077713e-01	1.445090e+00	3.309016e-01	5.767948e-02	2.732221e-01
197           	-1.075652e-01	1.444266e+00	3.308823e-01	5.787592e-02	2.730063e-01
198           	-1.073605e-01	1.443492e+00	3.309399e-01	5.810944e-02	2.728305e-01
199           	-1.071535e-01	1.442791e+00	3.310641e-01	5.837853e-02	2.726856e-01
200           	-1.069447e-01	1.442181e+00	3.311924e-01	5.865149e-02	2.725409e-01
201           	-1.067345e-01	1.441670e+00	3.313177e-01	5.892441e-02	2.723933e-01
202           	-1.065203e-01	1.441267e+00	3.314331e-01	5.919626e-02	2.722368e-01
203           	-1.063109e-01	1.440999e+00	3.315534e-01	5.946585e-02	2.720876e-01
204           	-1.061065e-01	1.440845e+00	3.316579e-01	5.972251e-02	2.719354e-01
205           	-1.059055e-01	1.440745e+00	3.317145e-01	5.995177e-02	2.717627e-01
206           	-1.057103e-01	1.440704e+00	3.316950e-01	6.013716e-02	2.715578e-01
207           	-1.055246e-01	1.440758e+00	3.315910e-01	6.027090e-02	2.713201e-01
208           	-1.053506e-01	1.440916e+00	3.313728e-01	6.033574e-02	2.710370e-01
209           	-1.051960e-01	1.441181e+00	3.310126e-01	6.031025e-02	2.707023e-01
210           	-1.050630e-01	1.441561e+00	3.305850e-01	6.022949e-02	2.703556e-01
211           	-1.049469e-01	1.441989e+00	3.300685e-01	6.008735e-02	2.699812e-01
212           	-1.048536e-01	1.442496e+00	3.294899e-01	5.989132e-02	2.695986e-01
213           	-1.047725e-01	1.443010e+00	3.288889e-01	5.967196e-02	2.692169e-01
214           	-1.047029e-01	1.443527e+00	3.282504e-01	5.942231e-02	2.688280e-01
215           	-1.046399e-01	1.444063e+00	3.275784e-01	5.914936e-02	2.684291e-01
216           	-1.045852e-01	1.444599e+00	3.268649e-01	5.884726e-02	2.680177e-01
217           	-1.045381e-01	1.445138e+00	3.260893e-01	5.850650e-02	2.675828e-01
218           	-1.045001e-01	1.445648e+00	3.252273e-01	5.811359e-02	2.671137e-01
219           	-1.044693e-01	1.446103e+00	3.242579e-01	5.765966e-02	2.665982e-01
220           	-1.044512e-01	1.446525e+00	3.232020e-01	5.714978e-02	2.660523e-01
221           	-1.044435e-01	1.446900e+00	3.221047e-01	5.660888e-02	2.654959e-01
222           	-1.044500e-01	1.447277e+00	3.209914e-01	5.604566e-02	2.649457e-01
223           	-1.044671e-01	1.447667e+00	3.198524e-01	5.545903e-02	2.643933e-01
224           	-1.044985e-01	1.448093e+00	3.187115e-01	5.485727e-02	2.638542e-01
225           	-1.045420e-01	1.448533e+00	3.175910e-01	5.425348e-02	2.633376e-01
226           	-1.046016e-01	1.449028e+00	3.165137e-01	5.365523e-02	2.628585e-01
227           	-1.046722e-01	1.449554e+00	3.154652e-01	5.306045e-02	2.624048e-01
228           	-1.047504e-01	1.450099e+00	3.144051e-01	5.245214e-02	2.619529e-01
229           	-1.048401e-01	1.450669e+00	3.132956e-01	5.180769e-02	2.614879e-01
230           	-1.049395e-01	1.451218e+00	3.121412e-01	5.113112e-02	2.610101e-01
231           	-1.050548e-01	1.451770e+00	3.110558e-01	5.047306e-02	2.605827e-01
232           	-1.051851e-01	1.452318e+00	3.100660e-01	4.984783e-02	2.602181e-01
233           	-1.053223e-01	1.452781e+00	3.091514e-01	4.925342e-02	2.598980e-01
234           	-1.054672e-01	1.453192e+00	3.082799e-01	4.867274e-02	2.596071e-01
235           	-1.056198e-01	1.453532e+00	3.074733e-01	4.811683e-02	2.593565e-01
236           	-1.057703e-01	1.453797e+00	3.067290e-01	4.759419e-02	2.591348e-01
237           	-1.059191e-01	1.454020e+00	3.060430e-01	4.710241e-02	2.589405e-01
238           	-1.060651e-01	1.454222e+00	3.054138e-01	4.664181e-02	2.587720e-01
239           	-1.062001e-01	1.454400e+00	3.047924e-01	4.619609e-02	2.585963e-01
240           	-1.063243e-01	1.454549e+00	3.042003e-01	4.577585e-02	2.584245e-01
241           	-1.064394e-01	1.454703e+00	3.036682e-01	4.539470e-02	2.582735e-01
242           	-1.065467e-01	1.454858e+00	3.032014e-01	4.505404e-02	2.581474e-01
243           	-1.066439e-01	1.454965e+00	3.028010e-01	4.475656e-02	2.580445e-01
244           	-1.067290e-01	1.454999e+00	3.024704e-01	4.450620e-02	2.579642e-01
245           	-1.067948e-01	1.454974e+00	3.022101e-01	4.431022e-02	2.578999e-01
246           	-1.068412e-01	1.454892e+00	3.020271e-01	4.417236e-02	2.578547e-01
247           	-1.068688e-01	1.454755e+00	3.019142e-01	4.408832e-02	2.578259e-01
248           	-1.068768e-01	1.454554e+00	3.018586e-01	4.405248e-02	2.578061e-01
249           	-1.068673e-01	1.454292e+00	3.018426e-01	4.405394e-02	2.577886e-01
250           	-1.068396e-01	1.453987e+00	3.018564e-01	4.408859e-02	2.577679e-01
251           	-1.067937e-01	1.453660e+00	3.018801e-01	4.414633e-02	2.577338e-01
252           	-1.067292e-01	1.453328e+00	3.019054e-01	4.422347e-02	2.576819e-01
253           	-1.066476e-01	1.453009e+00	3.019317e-01	4.431821e-02	2.576135e-01
254           	-1.065492e-01	1.452711e+00	3.019536e-01	4.442761e-02	2.575260e-01
255           	-1.064321e-01	1.452444e+00	3.019658e-01	4.455083e-02	2.574150e-01
256           	-1.062953e-01	1.452221e+00	3.019576e-01	4.468345e-02	2.572741e-01
257           	-1.061441e-01	1.452055e+00	3.019032e-01	4.480748e-02	2.570958e-01
258           	-1.059805e-01	1.451950e+00	3.017863e-01	4.491263e-02	2.568737e-01
259           	-1.058070e-01	1.451919e+00	3.016014e-01	4.499365e-02	2.566077e-01
260           	-1.056258e-01	1.451965e+00	3.013614e-01	4.505486e-02	2.563065e-01
261           	-1.054411e-01	1.452080e+00	3.010824e-01	4.510009e-02	2.559823e-01
262           	-1.052566e-01	1.452275e+00	3.007620e-01	4.512437e-02	2.556376e-01
263           	-1.050754e-01	1.452541e+00	3.003967e-01	4.512298e-02	2.552737e-01
264           	-1.048985e-01	1.452861e+00	2.999847e-01	4.509381e-02	2.548909e-01
265           	-1.047288e-01	1.453239e+00	2.995404e-01	4.504146e-02	2.544990e-01
266           	-1.045675e-01	1.453662e+00	2.990539e-01	4.495945e-02	2.540944e-01
267           	-1.044157e-01	1.454123e+00	2.985323e-01	4.485041e-02	2.536819e-01
268           	-1.042752e-01	1.454614e+00	2.979961e-01	4.472290e-02	2.532732e-01
269           	-1.041506e-01	1.455136e+00	2.974636e-01	4.458118e-02	2.528824e-01
270           	-1.040389e-01	1.455645e+00	2.969317e-01	4.442700e-02	2.525047e-01
271           	-1.039296e-01	1.456047e+00	2.963854e-01	4.426315e-02	2.521223e-01
272           	-1.038302e-01	1.456360e+00	2.958481e-01	4.409380e-02	2.517543e-01
273           	-1.037485e-01	1.456639e+00	2.953361e-01	4.391957e-02	2.514166e-01
274           	-1.036826e-01	1.456908e+00	2.948531e-01	4.374399e-02	2.511091e-01
275           	-1.036315e-01	1.457160e+00	2.943833e-01	4.356018e-02	2.508232e-01
276           	-1.035979e-01	1.457368e+00	2.939284e-01	4.336627e-02	2.505621e-01
277           	-1.035870e-01	1.457512e+00	2.935014e-01	4.316374e-02	2.503377e-01
278           	-1.035965e-01	1.457608e+00	2.931087e-01	4.295792e-02	2.501508e-01
279           	-1.036223e-01	1.457673e+00	2.927549e-01	4.275510e-02	2.499998e-01
280           	-1.036612e-01	1.457722e+00	2.924335e-01	4.255553e-02	2.498780e-01
281           	-1.037121e-01	1.457762e+00	2.921360e-01	4.235586e-02	2.497801e-01
282           	-1.037729e-01	1.457801e+00	2.918547e-01	4.215443e-02	2.497002e-01
283           	-1.038415e-01	1.457830e+00	2.915810e-01	4.194899e-02	2.496320e-01
284           	-1.039170e-01	1.457831e+00	2.913113e-01	4.173859e-02	2.495727e-01
285           	-1.039998e-01	1.457800e+00	2.910447e-01	4.152249e-02	2.495222e-01
286           	-1.040872e-01	1.457740e+00	2.907805e-01	4.130308e-02	2.494775e-01
287           	-1.041766e-01	1.457662e+00	2.905166e-01	4.108174e-02	2.494349e-01
288           	-1.042677e-01	1.457553e+00	2.902392e-01	4.085185e-02	2.493873e-01
289           	-1.043592e-01	1.457402e+00	2.899456e-01	4.061364e-02	2.493320e-01
290           	-1.044492e-01	1.457208e+00	2.896524e-01	4.037703e-02	2.492753e-01
291           	-1.045365e-01	1.456979e+00	2.893642e-01	4.014560e-02	2.492186e-01
292           	-1.046197e-01	1.456727e+00	2.890796e-01	3.992010e-02	2.491595e-01
293           	-1.046965e-01	1.456437e+00	2.887808e-01	3.969393e-02	2.490869e-01
294           	-1.047671e-01	1.456104e+00	2.884621e-01	3.946394e-02	2.489981e-01
295           	-1.048298e-01	1.455722e+00	2.881167e-01	3.922852e-02	2.488882e-01
296           	-1.048853e-01	1.455294e+00	2.877419e-01	3.898568e-02	2.487563e-01
297           	-1.049337e-01	1.454812e+00	2.873500e-01	3.874127e-02	2.486087e-01
298           	-1.049760e-01	1.454284e+00	2.869531e-01	3.850049e-02	2.484526e-01
299           	-1.050125e-01	1.453718e+00	2.865593e-01	3.826709e-02	2.482922e-01
300           	-1.050420e-01	1.453108e+00	2.861756e-01	3.804577e-02	2.481298e-01
301           	-1.050647e-01	1.452455e+00	2.858089e-01	3.783971e-02	2.479692e-01
302           	-1.050828e-01	1.451757e+00	2.854465e-01	3.764040e-02	2.478061e-01
303           	-1.050948e-01	1.451039e+00	2.850650e-01	3.743772e-02	2.476272e-01
304           	-1.051019e-01	1.450317e+00	2.846552e-01	3.722573e-02	2.474295e-01
305           	-1.051030e-01	1.449563e+00	2.842182e-01	3.700612e-02	2.472120e-01
306           	-1.050987e-01	1.448769e+00	2.837566e-01	3.677960e-02	2.469770e-01
307           	-1.050909e-01	1.447959e+00	2.832732e-01	3.654575e-02	2.467275e-01
308           	-1.050832e-01	1.447149e+00	2.828033e-01	3.631843e-02	2.464849e-01
309           	-1.050747e-01	1.446327e+00	2.823635e-01	3.610708e-02	2.462564e-01
310           	-1.050631e-01	1.445507e+00	2.819272e-01	3.590054e-02	2.460267e-01
311           	-1.050508e-01	1.444698e+00	2.815009e-01	3.569960e-02	2.458013e-01
312           	-1.050373e-01	1.443911e+00	2.811023e-01	3.551379e-02	2.455885e-01
313           	-1.050202e-01	1.443130e+00	2.806698e-01	3.531471e-02	2.453551e-01
314           	-1.050048e-01	1.442391e+00	2.802056e-01	3.509801e-02	2.451075e-01
315           	-1.049915e-01	1.441681e+00	2.797496e-01	3.488329e-02	2.448663e-01
316           	-1.049743e-01	1.440978e+00	2.792881e-01	3.466969e-02	2.446184e-01
317           	-1.049609e-01	1.440351e+00	2.788257e-01	3.445193e-02	2.443738e-01
318           	-1.049498e-01	1.439772e+00	2.783792e-01	3.423984e-02	2.441394e-01
319           	-1.049378e-01	1.439259e+00	2.779340e-01	3.402918e-02	2.439048e-01
320           	-1.049291e-01	1.438839e+00	2.775079e-01	3.382484e-02	2.436831e-01
321           	-1.049218e-01	1.438471e+00	2.770683e-01	3.361236e-02	2.434560e-01
322           	-1.049170e-01	1.438154e+00	2.766028e-01	3.338442e-02	2.432184e-01
323           	-1.049101e-01	1.437908e+00	2.761467e-01	3.316328e-02	2.429835e-01
324           	-1.049044e-01	1.437743e+00	2.756759e-01	3.293357e-02	2.427423e-01
325           	-1.048995e-01	1.437645e+00	2.752039e-01	3.270245e-02	2.425015e-01
326           	-1.048956e-01	1.437622e+00	2.747728e-01	3.249080e-02	2.422820e-01
327           	-1.048924e-01	1.437657e+00	2.743775e-01	3.229637e-02	2.420812e-01
328           	-1.048889e-01	1.437732e+00	2.740325e-01	3.212736e-02	2.419052e-01
329           	-1.048890e-01	1.437854e+00	2.737475e-01	3.198474e-02	2.417628e-01
330           	-1.048860e-01	1.438009e+00	2.735100e-01	3.186895e-02	2.416410e-01
331           	-1.048833e-01	1.438197e+00	2.733272e-01	3.178030e-02	2.415469e-01
332           	-1.048859e-01	1.438425e+00	2.731860e-01	3.170709e-02	2.414789e-01
333           	-1.048860e-01	1.438661e+00	2.730972e-01	3.166262e-02	2.414346e-01
334           	-1.048841e-01	1.438920e+00	2.730659e-01	3.164881e-02	2.414171e-01
335           	-1.048867e-01	1.439204e+00	2.730771e-01	3.165182e-02	2.414253e-01
336           	-1.048893e-01	1.439475e+00	2.731048e-01	3.166304e-02	2.414417e-01
337           	-1.048890e-01	1.439778e+00	2.731480e-01	3.168498e-02	2.414631e-01
338           	-1.048919e-01	1.440104e+00	2.732070e-01	3.171154e-02	2.414954e-01
339           	-1.048997e-01	1.440414e+00	2.732969e-01	3.174874e-02	2.415482e-01
340           	-1.049047e-01	1.440732e+00	2.734151e-01	3.180289e-02	2.416122e-01
341           	-1.049109e-01	1.441052e+00	2.735721e-01	3.187515e-02	2.416969e-01
342           	-1.049218e-01	1.441367e+00	2.737662e-01	3.196132e-02	2.418048e-01
343           	-1.049349e-01	1.441687e+00	2.739608e-01	3.204550e-02	2.419153e-01
344           	-1.049479e-01	1.441999e+00	2.741271e-01	3.211564e-02	2.420115e-01
345           	-1.049611e-01	1.442288e+00	2.742867e-01	3.218223e-02	2.421045e-01
346           	-1.049766e-01	1.442549e+00	2.744688e-01	3.225779e-02	2.422110e-01
347           	-1.049931e-01	1.442793e+00	2.746791e-01	3.234647e-02	2.423327e-01
348           	-1.050105e-01	1.443028e+00	2.749007e-01	3.243981e-02	2.424609e-01
349           	-1.050303e-01	1.443252e+00	2.751180e-01	3.252868e-02	2.425893e-01
350           	-1.050512e-01	1.443457e+00	2.753032e-01	3.260041e-02	2.427028e-01
351           	-1.050719e-01	1.443636e+00	2.754599e-01	3.265803e-02	2.428019e-01
352           	-1.050930e-01	1.443775e+00	2.756002e-01	3.270715e-02	2.428931e-01
353           	-1.051143e-01	1.443870e+00	2.757341e-01	3.275271e-02	2.429814e-01
354           	-1.051362e-01	1.443935e+00	2.758720e-01	3.279979e-02	2.430722e-01
355           	-1.051587e-01	1.443988e+00	2.760108e-01	3.284670e-02	2.431641e-01
356           	-1.051814e-01	1.444029e+00	2.761390e-01	3.288813e-02	2.432508e-01
357           	-1.052032e-01	1.444061e+00	2.762417e-01	3.291766e-02	2.433240e-01
358           	-1.052205e-01	1.444070e+00	2.763147e-01	3.293681e-02	2.433779e-01
359           	-1.052314e-01	1.444048e+00	2.763625e-01	3.294991e-02	2.434126e-01
360           	-1.052361e-01	1.443995e+00	2.763945e-01	3.296112e-02	2.434334e-01
361           	-1.052342e-01	1.443912e+00	2.764261e-01	3.297885e-02	2.434473e-01
362           	-1.052263e-01	1.443800e+00	2.764519e-01	3.299971e-02	2.434522e-01
363           	-1.052118e-01	1.443664e+00	2.764690e-01	3.302277e-02	2.434463e-01
364           	-1.051893e-01	1.443501e+00	2.764639e-01	3.304266e-02	2.434212e-01
365           	-1.051603e-01	1.443320e+00	2.764151e-01	3.304731e-02	2.433678e-01