1 	0 	0 	0
1.00104 	0.0677421 	-0.00638905 	0.0666394
1.00208 	0.13569 	-0.0123778 	0.13433
1.00317 	0.16708 	-0.0145367 	0.173178
1.00425 	0.20414 	-0.0171492 	0.216297
1.00538 	0.221917 	-0.0201756 	0.237674
1.00651 	0.24748 	-0.0230916 	0.264013
1.00769 	0.262541 	-0.0256386 	0.278401
1.00887 	0.282627 	-0.027927 	0.295402
1.0101 	0.297119 	-0.0301198 	0.307183
1.01132 	0.313958 	-0.0320323 	0.319736
1.01132 	0.313958 	-0.0320323 	0.319736
1.01259 	0.328271 	-0.0341248 	0.330365
1.0126 	0.328271 	-0.0341248 	0.330365
1.01387 	0.343287 	-0.0356558 	0.340778
1.01387 	0.343287 	-0.0356558 	0.340778
1.01519 	0.357674 	-0.0375399 	0.350761
1.0152 	0.357674 	-0.0375399 	0.350761
1.01652 	0.371789 	-0.0388565 	0.360237
1.01652 	0.371789 	-0.0388565 	0.360237
1.0179 	0.386232 	-0.040521 	0.369833
1.01791 	0.386232 	-0.040521 	0.369833
1.01929 	0.400108 	-0.0418795 	0.378974
1.01929 	0.400108 	-0.0418795 	0.378974
1.02073 	0.414609 	-0.0432952 	0.388386
1.02073 	0.414609 	-0.0432952 	0.388386
1.02217 	0.428617 	-0.044586 	0.397535
1.02217 	0.428617 	-0.044586 	0.397535
1.02367 	0.443334 	-0.0457924 	0.407052
1.02367 	0.443334 	-0.0457924 	0.407052
1.02517 	0.457764 	-0.0469661 	0.416478
1.02517 	0.457764 	-0.0469661 	0.416478
1.02574 	0.463396 	-0.0474351 	0.42014
1.02632 	0.46896 	-0.0479191 	0.423797
1.0273 	0.475838 	-0.0487159 	0.428868
1.02829 	0.482923 	-0.0496167 	0.434044
1.02992 	0.494823 	-0.0508802 	0.442789
1.03155 	0.507198 	-0.0524024 	0.451771
1.03324 	0.520066 	-0.0535873 	0.46122
1.03493 	0.533568 	-0.0551523 	0.470944
1.03669 	0.547179 	-0.056496 	0.48091
1.03846 	0.561458 	-0.0583092 	0.491072
1.04029 	0.57554 	-0.0596738 	0.501329
1.04213 	0.590156 	-0.0616175 	0.511563
1.04404 	0.604476 	-0.0630462 	0.521812
1.04596 	0.618991 	-0.0649191 	0.531827
1.04795 	0.633208 	-0.0664846 	0.541747
1.04994 	0.647411 	-0.0683561 	0.55135
1.05201 	0.661227 	-0.0699931 	0.560666
1.05409 	0.674947 	-0.071806 	0.569714
1.05482 	0.679446 	-0.0723494 	0.572648
1.05556 	0.683903 	-0.0729374 	0.575495
1.05698 	0.692859 	-0.0742719 	0.581132
1.05841 	0.701627 	-0.0756497 	0.58653
1.06065 	0.714474 	-0.0775827 	0.594304
1.0629 	0.726799 	-0.0796113 	0.60143
1.06524 	0.7389 	-0.0814312 	0.608438
1.06759 	0.750126 	-0.0834107 	0.614359
1.07002 	0.761481 	-0.0851013 	0.620602
1.07246 	0.77161 	-0.0870859 	0.625322
1.075 	0.781997 	-0.0887138 	0.630517
1.07754 	0.79136 	-0.0905701 	0.63441
1.08018 	0.800735 	-0.0921738 	0.638491
1.08283 	0.80945 	-0.0939474 	0.641723
1.08553 	0.817758 	-0.0954991 	0.644715
1.08824 	0.825756 	-0.0971493 	0.647299
1.08828 	0.825879 	-0.097174 	0.647337
1.08833 	0.825999 	-0.0972009 	0.64737
1.0912 	0.832679 	-0.098489 	0.649068
1.09407 	0.839205 	-0.0999165 	0.650461
1.09705 	0.845395 	-0.101153 	0.651676
1.10004 	0.851352 	-0.102639 	0.652344
1.10314 	0.857116 	-0.103743 	0.653142
1.10625 	0.862639 	-0.105261 	0.65319
1.10625 	0.862639 	-0.105261 	0.65319
1.10949 	0.867981 	-0.106304 	0.6535
1.10949 	0.867981 	-0.106304 	0.6535
1.11273 	0.873232 	-0.107716 	0.653151
1.11273 	0.873232 	-0.107716 	0.653151
1.1161 	0.878252 	-0.108781 	0.652933
1.11947 	0.883302 	-0.110061 	0.65233
1.12224 	0.887104 	-0.110831 	0.651829
1.125 	0.89096 	-0.111687 	0.651174
1.12575 	0.891848 	-0.111895 	0.650939
1.12649 	0.892778 	-0.112122 	0.650669
1.13014 	0.896856 	-0.112878 	0.64934
1.13379 	0.901254 	-0.113725 	0.647831
1.1376 	0.905256 	-0.114252 	0.6463
1.14141 	0.909954 	-0.114901 	0.644481
1.14537 	0.913929 	-0.115152 	0.64275
1.14933 	0.919011 	-0.115512 	0.64067
1.15345 	0.923388 	-0.115482 	0.638632
1.15758 	0.928557 	-0.115476 	0.636398
1.16188 	0.933404 	-0.115121 	0.634054
1.16618 	0.938666 	-0.114754 	0.631631
1.16643 	0.938937 	-0.114716 	0.631489
1.16667 	0.93923 	-0.114677 	0.631345
1.1709 	0.943631 	-0.113921 	0.628497
1.17513 	0.948571 	-0.113157 	0.625711
1.17979 	0.953247 	-0.112059 	0.622555
1.18445 	0.958989 	-0.110917 	0.619577
1.1893 	0.963555 	-0.109538 	0.616314
1.19415 	0.969672 	-0.108063 	0.613367
1.1992 	0.974499 	-0.106366 	0.610127
1.20426 	0.980315 	-0.104588 	0.60711
1.20928 	0.984971 	-0.102665 	0.604048
1.21429 	0.990059 	-0.100692 	0.601091
1.21454 	0.990283 	-0.100592 	0.600931
1.21478 	0.990536 	-0.100489 	0.600781
1.22026 	0.994915 	-0.0980535 	0.597284
1.22574 	0.999868 	-0.095554 	0.593997
1.23144 	1.00378 	-0.0929027 	0.590485
1.23714 	1.00855 	-0.0901048 	0.587318
1.24309 	1.01209 	-0.0872608 	0.583852
1.24903 	1.01643 	-0.084212 	0.580735
1.25522 	1.01974 	-0.0811403 	0.577425
1.2614 	1.0234 	-0.0779318 	0.574284
1.26532 	1.02516 	-0.0759568 	0.572346
1.26923 	1.02699 	-0.0739223 	0.570463
1.27176 	1.02817 	-0.0725582 	0.569167
1.27428 	1.02942 	-0.0711655 	0.567927
1.28099 	1.03192 	-0.0675939 	0.564732
1.2877 	1.03456 	-0.0639023 	0.561715
1.29469 	1.03662 	-0.0603183 	0.558618
1.30167 	1.0387 	-0.0564617 	0.55585
1.30894 	1.04036 	-0.0528721 	0.552905
1.31621 	1.04185 	-0.0489739 	0.550291
1.32379 	1.04306 	-0.0453766 	0.547531
1.33136 	1.0441 	-0.041593 	0.54496
1.33234 	1.04422 	-0.0411693 	0.544616
1.33333 	1.04432 	-0.0407243 	0.544294
1.33333 	1.04432 	-0.0407243 	0.544294
1.34023 	1.04522 	-0.0375294 	0.541846
1.34023 	1.04522 	-0.0375294 	0.541846
1.34713 	1.04595 	-0.0342048 	0.53957
1.34713 	1.04595 	-0.0342048 	0.53957
1.35535 	1.04686 	-0.0308246 	0.536749
1.35535 	1.04686 	-0.0308246 	0.536749
1.36356 	1.04732 	-0.0271763 	0.53428
1.36356 	1.04732 	-0.0271763 	0.53428
1.37211 	1.04812 	-0.0240471 	0.531471
1.37211 	1.04812 	-0.0240471 	0.531471
1.38066 	1.04831 	-0.0205945 	0.5291
1.38066 	1.04831 	-0.0205945 	0.5291
1.38957 	1.04882 	-0.0176152 	0.526446
1.38957 	1.04882 	-0.0176152 	0.526446
1.39847 	1.04899 	-0.0144619 	0.524036
1.39847 	1.04899 	-0.0144619 	0.524036
1.40378 	1.04918 	-0.01287 	0.522567
1.40378 	1.04918 	-0.01287 	0.522567
1.40909 	1.04926 	-0.0112199 	0.521181
1.40909 	1.04926 	-0.0112199 	0.521181
1.41306 	1.04942 	-0.00993132 	0.52008
1.41702 	1.04948 	-0.00861108 	0.519048
1.42667 	1.04978 	-0.00585546 	0.516493
1.43633 	1.04979 	-0.00300293 	0.514156
1.44638 	1.05003 	-0.00049853 	0.511633
1.45644 	1.04979 	0.00216012 	0.509463
1.45644 	1.04979 	0.00216012 	0.509463
1.46691 	1.04983 	0.00446276 	0.507078
1.47738 	1.04949 	0.00688343 	0.504968
1.48829 	1.0493 	0.0090004 	0.502749
1.49919 	1.04893 	0.0111731 	0.500664
1.4996 	1.04892 	0.011241 	0.500586
1.50001 	1.0489 	0.0113108 	0.500511
1.51095 	1.04866 	0.0133047 	0.498417
1.52189 	1.04824 	0.0153199 	0.496452
1.53371 	1.04794 	0.0171518 	0.494316
1.54554 	1.0473 	0.0190228 	0.492426
1.55785 	1.04693 	0.0206308 	0.490357
1.57016 	1.04614 	0.0222847 	0.488582
1.58298 	1.04558 	0.0236901 	0.486662
1.5958 	1.04478 	0.0251217 	0.48491
1.60346 	1.04438 	0.0258126 	0.483862
1.61112 	1.04392 	0.0265124 	0.482873
1.61681 	1.04361 	0.0270854 	0.482102
1.6225 	1.04324 	0.027653 	0.481376
1.6364 	1.0425 	0.0287881 	0.4796
1.6503 	1.04157 	0.0299049 	0.477967
1.66477 	1.0408 	0.0308428 	0.476225
1.67925 	1.03973 	0.0317499 	0.47471
1.69432 	1.03885 	0.0324958 	0.473058
1.7094 	1.03774 	0.0332138 	0.471598
1.72509 	1.03674 	0.0337755 	0.47006
1.74079 	1.03562 	0.0343207 	0.468623
1.7454 	1.03533 	0.0344333 	0.468203
1.75001 	1.03501 	0.034542 	0.467804
1.76175 	1.03423 	0.0348878 	0.46675
1.77348 	1.03339 	0.035208 	0.465752
1.79049 	1.03229 	0.035538 	0.46431
1.80751 	1.03105 	0.0358112 	0.462992
1.80751 	1.03105 	0.0358112 	0.462992
1.82523 	1.02993 	0.0360072 	0.461577
1.82523 	1.02993 	0.0360072 	0.461577
1.84296 	1.0286 	0.0361183 	0.460344
1.84296 	1.0286 	0.0361183 	0.460344
1.86141 	1.02741 	0.0361706 	0.459008
1.86141 	1.02741 	0.0361706 	0.459008
1.87987 	1.02608 	0.0361558 	0.457806
1.87987 	1.02608 	0.0361558 	0.457806
1.89908 	1.02481 	0.0360799 	0.456559
1.9183 	1.02348 	0.0359659 	0.45538
1.92343 	1.02316 	0.0359069 	0.455073
1.92856 	1.02282 	0.0358398 	0.45478
1.94344 	1.02183 	0.0356975 	0.453904
1.95832 	1.02081 	0.0355187 	0.453068
1.97916 	1.01933 	0.0352445 	0.451737
2 	1.01778 	0.0348781 	0.45051
