# wallShearStress  FACE_DATA 60650
# x  y  z  wallShearStress_x  wallShearStress_y  wallShearStress_z
8.75721 0 0.345731 0.00107604 -1.00287e-05 0.000993313
8.72516 0 0.336919 0.000926981 -1.08332e-05 0.000853739
8.69439 0 0.328456 0.000772392 -1.08035e-05 0.000711157
8.66483 0 0.320329 0.000613171 -1.10324e-05 0.000564356
8.63646 0 0.312526 0.000447967 -1.08659e-05 0.000412655
8.6092 0 0.305031 0.000277031 -1.26622e-05 0.00025745
8.58303 0 0.297833 0.000107745 -1.46352e-05 0.000104945
8.82531 0 0.430728 0.00152132 -7.76529e-06 0.00139469
8.79057 0 0.419435 0.00139348 -8.14881e-06 0.00126811
8.75721 0 0.408591 0.00126197 -8.19912e-06 0.00113796
8.72516 0 0.398176 0.0011246 -9.27604e-06 0.00100207
8.69439 0 0.388175 0.000979923 -9.85071e-06 0.000859942
8.66483 0 0.378571 0.000828156 -1.04169e-05 0.000712006
8.63646 0 0.369348 0.000670072 -1.04936e-05 0.000560451
8.6092 0 0.360491 0.000505364 -1.06785e-05 0.000404064
8.58303 0 0.351985 0.000336534 -1.11563e-05 0.000244583
8.5579 0 0.343817 0.000168618 -1.39099e-05 8.43059e-05
8.53376 0 0.335973 8.33647e-06 -1.09073e-05 -7.00343e-05
8.51058 0 0.32844 -0.000130972 -5.68024e-06 -0.000213162
8.9384 0 0.539403 0.00197614 -7.34966e-06 0.00180681
8.89917 0 0.52469 0.00187169 -5.19314e-06 0.00171004
8.8615 0 0.510562 0.00176354 -6.27996e-06 0.00160274
8.82531 0 0.496994 0.00165397 -6.47104e-06 0.00148961
8.79057 0 0.483964 0.00153612 -7.16035e-06 0.00136998
8.75721 0 0.471451 0.00141375 -6.8925e-06 0.00124296
8.72516 0 0.459434 0.00128742 -7.64224e-06 0.0011147
8.69439 0 0.447895 0.00115748 -8.21974e-06 0.000981377
8.66483 0 0.436813 0.00101939 -9.31764e-06 0.000840349
8.63646 0 0.426171 0.000872828 -9.74754e-06 0.000692781
8.6092 0 0.415951 0.000718541 -1.02431e-05 0.000539461
8.58303 0 0.406136 0.000556745 -1.03194e-05 0.000381099
8.5579 0 0.396712 0.000389601 -1.05919e-05 0.0002192
8.53376 0 0.387661 0.000221408 -1.34237e-05 5.61475e-05
8.51058 0 0.378969 5.94678e-05 -1.20015e-05 -0.000103146
8.48833 0 0.370622 -8.34727e-05 -6.82317e-06 -0.00025213
8.46695 0 0.362605 -0.000194302 -2.0878e-06 -0.000387935
8.9384 0 0.611323 0.00204896 -7.76006e-06 0.00181459
8.89917 0 0.594649 0.00194973 -3.32244e-06 0.00173489
8.8615 0 0.578636 0.00185781 -4.9749e-06 0.00163909
8.82531 0 0.563259 0.00175726 -5.1941e-06 0.00153809
8.79057 0 0.548492 0.0016536 -6.27905e-06 0.00142885
8.75721 0 0.534311 0.00154216 -6.1747e-06 0.00131554
8.72516 0 0.520692 0.00142166 -6.06556e-06 0.00119385
8.69439 0 0.507614 0.00130424 -6.49265e-06 0.00106857
8.66483 0 0.495055 0.00118173 -7.36885e-06 0.000937612
8.63646 0 0.482994 0.00105043 -8.2366e-06 0.000800925
8.6092 0 0.471411 0.000910263 -9.13146e-06 0.000656157
8.58303 0 0.460288 0.000761495 -9.42557e-06 0.000504461
8.5579 0 0.449607 0.000604506 -9.82795e-06 0.000346665
8.53376 0 0.439349 0.000440406 -1.07558e-05 0.00018425
8.51058 0 0.429498 0.000273536 -1.26477e-05 1.95702e-05
8.48833 0 0.420038 0.000110698 -1.13548e-05 -0.000142942
8.46695 0 0.410953 -3.54192e-05 -7.89411e-06 -0.000296951
8.44642 0 0.402229 -0.000149875 -9.40554e-07 -0.000438953
8.42671 0 0.393851 -0.000219413 2.20403e-06 -0.000570583
8.9384 0 0.683243 0.00208939 -8.91943e-06 0.00176095
8.89917 0 0.664607 0.00199959 -1.42014e-06 0.00170392
8.8615 0 0.646711 0.00191911 -4.90572e-06 0.00162275
8.82531 0 0.629525 0.00182695 -4.25859e-06 0.00154177
8.79057 0 0.613021 0.0017306 -5.1864e-06 0.00144834
8.75721 0 0.597171 0.00163464 -5.31949e-06 0.00135357
8.72516 0 0.58195 0.00153239 -6.38901e-06 0.00124455
8.69439 0 0.567333 0.00142019 -6.03599e-06 0.00113062
8.66483 0 0.553296 0.00130779 -6.74458e-06 0.00100683
8.63646 0 0.539816 0.0011912 -6.82171e-06 0.000884035
8.6092 0 0.526871 0.00106994 -8.06271e-06 0.00075405
8.58303 0 0.51444 0.000937936 -8.90457e-06 0.000614209
8.5579 0 0.502501 0.000795224 -9.5178e-06 0.000465826
8.53376 0 0.491037 0.000643007 -9.78142e-06 0.000310004
8.51058 0 0.480027 0.000482345 -1.13905e-05 0.000147889
8.48833 0 0.469454 0.000316988 -1.15044e-05 -1.77685e-05
8.46695 0 0.4593 0.000155131 -1.10778e-05 -0.000182988
8.44642 0 0.44955 7.33614e-06 -8.58794e-06 -0.000342226
8.42671 0 0.440186 -0.000110041 -7.19868e-07 -0.000491443
8.40778 0 0.431194 -0.000178967 6.29077e-07 -0.000631964
8.38959 0 0.422558 -0.000199539 4.15968e-06 -0.000760724
8.9384 0 0.755163 0.00209389 -9.39624e-06 0.00164784
8.89917 0 0.734566 0.00201848 5.53802e-07 0.00161342
8.8615 0 0.714786 0.00194675 -5.03732e-06 0.00154609
8.82531 0 0.69579 0.00186548 -2.64627e-06 0.00148649
8.79057 0 0.677549 0.00178445 -4.25629e-06 0.00141161
8.75721 0 0.660031 0.00170004 -3.9969e-06 0.00133419
8.72516 0 0.643208 0.00160907 -4.92434e-06 0.0012514
8.69439 0 0.627053 0.00152093 -5.07059e-06 0.00115706
8.66483 0 0.611538 0.00142048 -5.16837e-06 0.0010539
8.63646 0 0.596639 0.00131052 -4.8469e-06 0.000937755
8.6092 0 0.582331 0.00120679 -5.634e-06 0.000822134
8.58303 0 0.568591 0.00109734 -6.70638e-06 0.000698817
8.5579 0 0.555397 0.00097504 -7.82158e-06 0.00056518
8.53376 0 0.542725 0.000841064 -8.3788e-06 0.000421575
8.51058 0 0.530556 0.000696304 -9.02925e-06 0.000268491
8.48833 0 0.518871 0.000541063 -1.1032e-05 0.000108086
8.46695 0 0.507648 0.000379561 -1.01969e-05 -5.74589e-05
8.44642 0 0.496871 0.00021929 -1.06183e-05 -0.000223835
8.42671 0 0.486522 7.07426e-05 -9.49235e-06 -0.000386507
8.40778 0 0.476583 -4.87306e-05 -7.97059e-07 -0.000541495
8.38959 0 0.467038 -0.000121104 2.11777e-06 -0.000688974
8.9384 0 0.827083 0.00206485 -1.19168e-05 0.00150268
8.89917 0 0.804525 0.00200009 9.7479e-07 0.00149448
8.8615 0 0.782861 0.00193587 -6.13271e-06 0.00144541
8.82531 0 0.762056 0.00186253 -1.64273e-06 0.00141142
8.79057 0 0.742077 0.00179175 -4.03105e-06 0.0013571
8.75721 0 0.722891 0.00171078 -2.93624e-06 0.00130202
8.72516 0 0.704466 0.00163447 -4.34733e-06 0.0012341
8.69439 0 0.686772 0.00155815 -5.26808e-06 0.00115667
8.66483 0 0.66978 0.00148718 -5.5303e-06 0.00107742
8.63646 0 0.653462 0.00139582 -6.25967e-06 0.000982881
8.6092 0 0.637792 0.00129192 -5.79939e-06 0.000877825
8.58303 0 0.622743 0.00119961 -6.05025e-06 0.000764375
8.5579 0 0.608291 0.00109847 -7.09555e-06 0.000648036
8.53376 0 0.594413 0.000986437 -8.10898e-06 0.000522137
8.51058 0 0.581085 0.000861755 -8.88685e-06 0.000383271
8.48833 0 0.568287 0.000724191 -9.67554e-06 0.000233137
8.46695 0 0.555995 0.000575835 -1.15669e-05 7.40654e-05
8.44642 0 0.544192 0.000419844 -1.06514e-05 -9.17124e-05
8.42671 0 0.532857 0.000264202 -1.05841e-05 -0.000259855
8.40778 0 0.521972 0.000118928 -8.87495e-06 -0.00042626
8.38959 0 0.511518 7.06614e-07 -2.69155e-06 -0.00058598
8.9384 0 0.899004 0.00199895 -1.38279e-05 0.00134072
8.89917 0 0.874483 0.00194491 2.29757e-06 0.00134568
8.8615 0 0.850935 0.00189575 -7.03528e-06 0.00130896
8.82531 0 0.828322 0.00183866 -9.03777e-07 0.00129163
8.79057 0 0.806606 0.00178318 -4.51442e-06 0.00125084
8.75721 0 0.785751 0.0017241 -2.0427e-06 0.00121557
8.72516 0 0.765724 0.0016678 -3.71441e-06 0.00116529
8.69439 0 0.746491 0.00159969 -2.86762e-06 0.00111561
8.66483 0 0.728022 0.00152765 -3.51532e-06 0.0010567
8.63646 0 0.710285 0.00146193 -3.13173e-06 0.000994612
8.6092 0 0.693252 0.00139882 -4.51165e-06 0.00091044
8.58303 0 0.676895 0.00131179 -3.85036e-06 0.000817255
8.5579 0 0.661186 0.00121895 -4.46677e-06 0.000708648
8.53376 0 0.646101 0.00113022 -5.12977e-06 0.000600393
8.51058 0 0.631614 0.00103272 -6.62181e-06 0.000481634
8.48833 0 0.617703 0.00091846 -7.61378e-06 0.000349358
8.46695 0 0.604343 0.000789767 -9.17277e-06 0.000203848
8.44642 0 0.591513 0.000648849 -1.08747e-05 4.78878e-05
8.42671 0 0.579192 0.000498034 -9.92694e-06 -0.00011691
8.40778 0 0.56736 0.000344092 -9.86856e-06 -0.000285468
8.38959 0 0.555998 0.000198573 -7.30685e-06 -0.000454391
8.37214 0 0.545086 7.85242e-05 -3.35279e-06 -0.000618711
8.9384 0 0.970925 0.00192364 -1.41438e-05 0.00119282
8.89917 0 0.944442 0.00188132 3.75556e-06 0.00121893
8.8615 0 0.91901 0.00183581 -7.97601e-06 0.0011941
8.82531 0 0.894588 0.00178362 5.64149e-08 0.00119599
8.79057 0 0.871135 0.00173348 -4.77505e-06 0.0011687
8.75721 0 0.848612 0.00167633 -1.09855e-06 0.00114959
8.72516 0 0.826982 0.00161927 -3.61564e-06 0.00111351
8.69439 0 0.806211 0.0015611 -2.57969e-06 0.00107624
8.66483 0 0.786263 0.00151302 -4.84413e-06 0.00102512
8.63646 0 0.767108 0.00146214 -5.63467e-06 0.000967606
8.6092 0 0.748712 0.00140267 -6.19559e-06 0.000908281
8.58303 0 0.731046 0.0013494 -5.94598e-06 0.000842537
8.5579 0 0.714081 0.00127687 -5.51165e-06 0.000760682
8.53376 0 0.697789 0.00118856 -5.11287e-06 0.000661311
8.51058 0 0.682144 0.00111443 -5.79777e-06 0.000554902
8.48833 0 0.667119 0.00102775 -7.41406e-06 0.000444385
8.46695 0 0.65269 0.000926818 -8.49206e-06 0.000319738
8.44642 0 0.638834 0.000810487 -1.00755e-05 0.000179178
8.42671 0 0.625528 0.000680673 -1.16348e-05 2.65781e-05
8.40778 0 0.612749 0.000540314 -1.07128e-05 -0.000136463
8.38959 0 0.600478 0.000396083 -1.16461e-05 -0.000304864
8.37214 0 0.588693 0.000258026 -7.47828e-06 -0.000475405
8.97926 0 1.07246 0.00176404 1.66342e-05 0.00106752
8.9384 0 1.04284 0.00180844 -1.68683e-05 0.00101917
8.89917 0 1.0144 0.00178577 5.34727e-06 0.00105907
8.8615 0 0.987085 0.00175943 -9.41751e-06 0.00103717
8.82531 0 0.960854 0.00172114 1.34424e-06 0.00105212
8.79057 0 0.935663 0.00168914 -5.69189e-06 0.00103525
8.75721 0 0.911471 0.00165025 -6.05555e-07 0.00103076
8.72516 0 0.88824 0.00161456 -3.69445e-06 0.00100875
8.69439 0 0.86593 0.00157279 -1.39686e-06 0.000988133
8.66483 0 0.844505 0.00152891 -2.5065e-06 0.000958895
8.63646 0 0.823931 0.00147721 -1.26284e-06 0.000928827
8.6092 0 0.804172 0.00142776 -1.63064e-06 0.000891009
8.58303 0 0.785198 0.00138303 -1.76181e-06 0.000842639
8.5579 0 0.766976 0.00134799 -2.47406e-06 0.000788795
8.53376 0 0.749477 0.00130034 -3.95065e-06 0.000712894
8.51058 0 0.732673 0.0012218 -3.0098e-06 0.000624572
8.48833 0 0.716535 0.00114512 -3.43623e-06 0.000523915
8.46695 0 0.701038 0.00107514 -4.72396e-06 0.000419093
8.44642 0 0.686155 0.00098868 -6.37718e-06 0.000301814
8.42671 0 0.671863 0.000882411 -8.65657e-06 0.000168736
8.40778 0 0.658138 0.000761353 -9.93095e-06 2.18668e-05
8.38959 0 0.644957 0.000629242 -9.40365e-06 -0.000137539
8.37214 0 0.6323 0.000489493 -1.07163e-05 -0.000304116
8.97926 0 1.14643 0.00161394 2.20968e-05 0.0009609
8.9384 0 1.11476 0.00169871 -1.7503e-05 0.00089543
8.89917 0 1.08436 0.00168108 8.7228e-06 0.000948498
8.8615 0 1.05516 0.00166281 -1.03632e-05 0.000925732
8.82531 0 1.02712 0.00162808 3.35164e-06 0.000952004
8.79057 0 1.00019 0.00159951 -6.62187e-06 0.000941467
8.75721 0 0.974331 0.00155824 -7.07219e-07 0.00094427
8.72516 0 0.949498 0.00151993 -5.21964e-06 0.000931136
8.69439 0 0.925649 0.00147901 -2.55575e-06 0.000919695
8.66483 0 0.902747 0.00144302 -4.42596e-06 0.000899348
8.63646 0 0.880753 0.00140932 -3.88971e-06 0.000873969
8.6092 0 0.859632 0.00138176 -5.34769e-06 0.000839633
8.58303 0 0.839349 0.00135199 -5.64615e-06 0.000799938
8.5579 0 0.819871 0.00131077 -5.86187e-06 0.000756678
8.53376 0 0.801165 0.0012685 -5.18592e-06 0.000715983
8.51058 0 0.783202 0.00123464 -5.80408e-06 0.000661345
8.48833 0 0.765951 0.00118262 -4.58813e-06 0.000583708
8.46695 0 0.749385 0.00111701 -5.44033e-06 0.00048768
8.44642 0 0.733476 0.00105118 -6.7575e-06 0.000390586
8.42671 0 0.718198 0.0009766 -8.16171e-06 0.000282599
8.40778 0 0.703526 0.00088596 -1.01763e-05 0.000158298
8.38959 0 0.689437 0.000779519 -1.15678e-05 1.91989e-05
8.37214 0 0.675907 0.000659459 -1.1217e-05 -0.000134473
8.97926 0 1.22039 0.00138795 2.69692e-05 0.000857128
8.9384 0 1.18669 0.00156814 -2.07455e-05 0.000751601
8.89917 0 1.15432 0.00156654 1.28095e-05 0.000806038
8.8615 0 1.12324 0.00158022 -1.15566e-05 0.00078292
8.82531 0 1.09339 0.00156076 6.4826e-06 0.000815421
8.79057 0 1.06472 0.00155048 -5.0485e-06 0.000818479
8.75721 0 1.03719 0.0015218 1.2903e-06 0.000831989
8.72516 0 1.01076 0.00149706 -3.78988e-06 0.00083301
8.69439 0 0.985369 0.00146615 -5.06678e-07 0.000831135
8.66483 0 0.960988 0.00143712 -1.54805e-06 0.000823329
8.63646 0 0.937576 0.00140818 -7.21012e-07 0.000811772
8.6092 0 0.915092 0.00137863 -9.67105e-07 0.000795997
8.58303 0 0.893501 0.00134596 -4.57459e-07 0.00077741
8.5579 0 0.872766 0.00131391 -5.15834e-07 0.000752835
8.53376 0 0.852853 0.00128852 -6.75326e-07 0.000716271
8.51058 0 0.833731 0.00127245 -1.52681e-06 0.000673686
8.48833 0 0.815368 0.00125922 -2.95327e-06 0.000622491
8.46695 0 0.797732 0.00121332 -3.19222e-06 0.000551012
8.44642 0 0.780797 0.00114863 -1.40346e-06 0.000464518
8.42671 0 0.764534 0.00109479 -2.74026e-06 0.000374956
8.40778 0 0.748915 0.00103543 -3.67529e-06 0.000274161
8.38959 0 0.733917 0.000960586 -6.26403e-06 0.00015953
8.37214 0 0.719513 0.000869182 -8.15158e-06 3.04089e-05
8.97926 0 1.29435 0.00096039 4.26576e-05 0.000801989
8.9384 0 1.25861 0.00137092 -2.09749e-05 0.000636667
8.89917 0 1.22428 0.00136706 1.54454e-05 0.000685108
8.8615 0 1.19131 0.00140709 -1.39208e-05 0.000668771
8.82531 0 1.15965 0.00139534 4.01364e-06 0.000684584
8.79057 0 1.12925 0.00139128 -6.9357e-06 0.000690847
8.75721 0 1.10005 0.00137176 -5.42581e-07 0.000699802
8.72516 0 1.07202 0.00135443 -3.88232e-06 0.00070802
8.69439 0 1.04509 0.00133174 -2.03992e-06 0.000715126
8.66483 0 1.01923 0.00131108 -3.4811e-06 0.000719121
8.63646 0 0.994399 0.0012906 -3.48596e-06 0.000719913
8.6092 0 0.970553 0.0012716 -4.49333e-06 0.000715595
8.58303 0 0.947652 0.00125534 -4.79894e-06 0.000705323
8.5579 0 0.925661 0.00124414 -6.0202e-06 0.00068764
8.53376 0 0.904541 0.00122993 -6.85587e-06 0.000661785
8.51058 0 0.88426 0.00120714 -7.33159e-06 0.00063131
8.48833 0 0.864784 0.00118336 -6.99927e-06 0.000602193
8.46695 0 0.84608 0.00116367 -7.05333e-06 0.000572782
8.44642 0 0.828118 0.00112557 -8.04829e-06 0.000517283
8.42671 0 0.810869 0.00107604 -5.48199e-06 0.000446471
8.40778 0 0.794304 0.00102818 -7.79513e-06 0.000366786
8.38959 0 0.778397 0.000972791 -9.09828e-06 0.000274967
8.37214 0 0.76312 0.000906585 -1.14114e-05 0.000171391
8.97926 0 1.36832 3.19148e-05 6.17005e-05 0.000466251
8.9384 0 1.33053 0.00101151 -2.90078e-05 0.000421317
8.89917 0 1.29423 0.00110812 2.71403e-05 0.00048559
8.8615 0 1.25938 0.00128419 1.58328e-06 0.000533715
8.82531 0 1.22592 0.00132324 1.47691e-05 0.000574868
8.79057 0 1.19378 0.00133588 4.61028e-06 0.000614833
8.75721 0 1.16291 0.00132555 5.52881e-06 0.000633155
8.72516 0 1.13327 0.00130818 2.01438e-06 0.000647366
8.69439 0 1.10481 0.00128961 1.21825e-06 0.000654987
8.66484 0 1.07747 0.00127121 -1.76092e-07 0.000659477
8.63646 0 1.05122 0.0012552 1.68185e-07 0.000661614
8.6092 0 1.02601 0.00124328 9.21679e-08 0.000661216
8.58303 0 1.0018 0.00123424 4.45073e-07 0.000657986
8.5579 0 0.978555 0.00122657 2.66606e-07 0.000651352
8.53376 0 0.956229 0.00121656 7.12581e-07 0.000641795
8.51058 0 0.934789 0.00120479 1.16185e-06 0.000626092
8.48833 0 0.9142 0.00119138 1.41974e-06 0.000600923
8.46695 0 0.894427 0.0011861 1.20941e-06 0.000571541
8.44642 0 0.875439 0.00118176 5.62575e-07 0.000537918
8.42671 0 0.857205 0.00116065 -4.0129e-07 0.000488248
8.40778 0 0.839693 0.00112994 2.45524e-06 0.000427348
8.38959 0 0.822877 0.00109953 1.55049e-06 0.000349025
8.37214 0 0.806727 0.00106158 5.67723e-07 0.000261941
8.97926 0 1.44228 -0.000666325 3.59732e-05 0.000257036
8.9384 0 1.40245 0.000246627 -4.3136e-05 0.000493696
8.89917 0 1.36419 0.000324988 -1.97899e-05 0.000372965
8.8615 0 1.32746 0.000673775 -2.75416e-05 0.000384663
8.82531 0 1.29218 0.000871182 -1.54051e-05 0.000381954
8.79057 0 1.2583 0.00102277 -1.096e-05 0.000400309
8.75721 0 1.22577 0.00110354 -5.94321e-06 0.000424888
8.72516 0 1.19453 0.00114377 -6.20906e-06 0.000450671
8.69439 0 1.16453 0.0011565 -5.5592e-06 0.000474429
8.66483 0 1.13571 0.00115499 -6.28649e-06 0.000494698
8.63646 0 1.10804 0.00114574 -5.69919e-06 0.000512625
8.6092 0 1.08147 0.00113399 -6.33557e-06 0.000526591
8.58303 0 1.05595 0.00112138 -6.43062e-06 0.000536932
8.5579 0 1.03145 0.00110958 -7.30853e-06 0.000543224
8.53376 0 1.00792 0.00109921 -7.69431e-06 0.000544989
8.51058 0 0.985317 0.00109206 -8.79988e-06 0.00054122
8.48833 0 0.963616 0.00108269 -9.45786e-06 0.00053048
8.46695 0 0.942775 0.00106983 -1.03239e-05 0.000512999
8.44642 0 0.92276 0.00105061 -1.09404e-05 0.000494282
8.42671 0 0.90354 0.00102904 -1.14761e-05 0.000475416
8.40778 0 0.885082 0.0010169 -1.27878e-05 0.000444741
8.38959 0 0.867357 0.000984119 -1.51308e-05 0.000403818
8.37214 0 0.850334 0.000943349 -1.41159e-05 0.000351048
7.66922 0 0.966948 -0.00169454 -1.94721e-05 -0.000583718
7.67296 0 0.988324 -0.00206845 -2.05459e-05 -0.000630771
7.67685 0 1.01058 -0.00246341 -2.09697e-05 -0.000664699
7.68091 0 1.03376 -0.00288082 -2.0803e-05 -0.000693353
7.68513 0 1.0579 -0.00331764 -2.05439e-05 -0.000720005
7.68953 0 1.08303 -0.00377296 -1.97293e-05 -0.000748843
7.69411 0 1.1092 -0.00423248 -1.81918e-05 -0.000791061
7.69888 0 1.13646 -0.00468767 -1.6509e-05 -0.00085224
7.70385 0 1.16483 -0.00513318 -1.5376e-05 -0.000937226
7.70902 0 1.19439 -0.00556883 -1.42869e-05 -0.00105245
7.7144 0 1.22516 -0.00599044 -1.26798e-05 -0.00120786
7.72001 0 1.25721 -0.00638457 -9.87206e-06 -0.00141241
7.72585 0 1.29057 -0.00673598 -5.49968e-06 -0.00168235
7.73193 0 1.32531 -0.00701788 -6.39315e-07 -0.00200739
7.70425 0 0.907776 -0.000503884 1.21176e-05 -0.000360037
7.70851 0 0.926707 -0.000682312 5.41946e-06 -0.00049581
7.71295 0 0.946421 -0.000893743 -3.34417e-06 -0.000600448
7.71757 0 0.966948 -0.00115548 -9.07198e-06 -0.00064617
7.72238 0 0.988324 -0.00146808 -1.36475e-05 -0.000662302
7.72738 0 1.01058 -0.00182637 -1.64778e-05 -0.000668362
7.7326 0 1.03376 -0.00222295 -1.83918e-05 -0.000667865
7.73803 0 1.0579 -0.00264877 -1.8704e-05 -0.000670333
7.74368 0 1.08303 -0.00309649 -1.86292e-05 -0.000677852
7.74957 0 1.1092 -0.00355407 -1.79615e-05 -0.000692404
7.7557 0 1.13646 -0.00400759 -1.72791e-05 -0.000717494
7.76209 0 1.16484 -0.00445488 -1.54954e-05 -0.000761743
7.76874 0 1.19439 -0.00488821 -1.48118e-05 -0.000829664
7.77566 0 1.22516 -0.00531074 -1.31193e-05 -0.000926111
7.78287 0 1.25721 -0.0057174 -1.21055e-05 -0.00105322
7.79038 0 1.29057 -0.00610979 -9.5948e-06 -0.00122967
7.7982 0 1.32531 -0.00645739 -6.93898e-06 -0.00144857
7.73984 0 0.872138 -0.000319462 3.62254e-05 0.000297647
7.74464 0 0.889597 -0.000489848 3.95656e-05 -2.07155e-05
7.74964 0 0.907777 -0.000626196 3.13254e-05 -0.000314594
7.75484 0 0.926707 -0.000788902 1.91815e-05 -0.000536075
7.76026 0 0.94642 -0.000932516 8.09152e-06 -0.000673396
7.76591 0 0.966948 -0.00107308 -1.89495e-06 -0.000720351
7.77179 0 0.988324 -0.00124195 -7.80433e-06 -0.000707532
7.77791 0 1.01058 -0.00146192 -1.07654e-05 -0.000675006
7.78428 0 1.03376 -0.0017472 -1.34266e-05 -0.000639087
7.79092 0 1.0579 -0.00209324 -1.50825e-05 -0.000621483
7.79783 0 1.08303 -0.00249782 -1.68208e-05 -0.000616757
7.80503 0 1.1092 -0.00293539 -1.73629e-05 -0.000611559
7.81252 0 1.13646 -0.00338443 -1.64145e-05 -0.000617787
7.82033 0 1.16483 -0.00383104 -1.57718e-05 -0.000637651
7.82845 0 1.19439 -0.00426213 -1.45926e-05 -0.000672869
7.83692 0 1.22516 -0.00468135 -1.35188e-05 -0.000729676
7.84573 0 1.25721 -0.00508337 -1.24921e-05 -0.000806159
7.85491 0 1.29057 -0.00548136 -1.09463e-05 -0.000920359
7.86446 0 1.32531 -0.00584809 -1.00572e-05 -0.00105707
7.87441 0 1.3615 -0.00621795 -5.65995e-06 -0.00126584
7.778 0 0.855372 -8.20937e-05 1.48018e-05 0.000655484
7.78345 0 0.872138 -0.000240253 2.17899e-05 0.000392332
7.78912 0 0.889597 -0.000403901 2.18558e-05 0.000154968
7.79503 0 0.907776 -0.000561932 2.5507e-05 -0.000128014
7.80118 0 0.926708 -0.000740364 1.53505e-05 -0.000399794
7.80759 0 0.94642 -0.000887296 5.89795e-06 -0.000540501
7.81425 0 0.966948 -0.00101135 1.08951e-06 -0.000612588
7.82121 0 0.988324 -0.00113168 -3.36657e-06 -0.000631238
7.82844 0 1.01058 -0.00127305 -6.92599e-06 -0.000612128
7.83597 0 1.03376 -0.00144945 -1.00111e-05 -0.000565129
7.84382 0 1.0579 -0.00169776 -1.15975e-05 -0.000537732
7.85199 0 1.08303 -0.00201124 -1.43716e-05 -0.000533694
7.86049 0 1.1092 -0.00239042 -1.58348e-05 -0.000522437
7.86935 0 1.13646 -0.00281373 -1.52413e-05 -0.000526682
7.87857 0 1.16484 -0.00324634 -1.57098e-05 -0.000537614
7.88818 0 1.19439 -0.00367948 -1.38354e-05 -0.000556328
7.89818 0 1.22516 -0.00409672 -1.35671e-05 -0.000590095
7.90859 0 1.25721 -0.00449622 -1.29588e-05 -0.000632574
7.91943 0 1.29057 -0.00489206 -1.15482e-05 -0.000703776
7.93073 0 1.32531 -0.00525858 -1.1043e-05 -0.000786165
7.94249 0 1.3615 -0.00564262 -7.65267e-06 -0.000930546
7.81473 0 0.839271 0.000387434 -5.81699e-07 0.000484968
7.82076 0 0.855372 0.000255723 3.41336e-06 0.00031088
7.82705 0 0.872138 8.37055e-05 -4.80666e-08 0.00016143
7.8336 0 0.889597 -6.38936e-05 -2.61427e-06 6.47378e-05
7.84042 0 0.907777 -0.000208659 3.89068e-06 -0.000111049
7.84752 0 0.926707 -0.000360272 -3.85296e-06 -0.000282721
7.85491 0 0.946421 -0.00051472 -8.4509e-06 -0.00034553
7.8626 0 0.966948 -0.000673321 -9.06643e-06 -0.000386517
7.87062 0 0.988324 -0.000831175 -8.06814e-06 -0.000412294
7.87897 0 1.01058 -0.00099035 -6.39923e-06 -0.000410222
7.88766 0 1.03376 -0.00115507 -6.98052e-06 -0.000404142
7.89671 0 1.0579 -0.0013576 -9.84452e-06 -0.000411844
7.90614 0 1.08303 -0.00160636 -1.22331e-05 -0.000416683
7.91595 0 1.1092 -0.00192001 -1.35952e-05 -0.000416461
7.92617 0 1.13646 -0.00229569 -1.3835e-05 -0.000426566
7.93681 0 1.16483 -0.0027035 -1.37602e-05 -0.000444931
7.9479 0 1.19439 -0.00312563 -1.41014e-05 -0.000462293
7.95943 0 1.22516 -0.00354419 -1.3056e-05 -0.000485725
7.97145 0 1.25721 -0.00394389 -1.29825e-05 -0.000508916
7.98397 0 1.29057 -0.00434204 -1.19336e-05 -0.000550802
7.99699 0 1.32531 -0.00470811 -1.10288e-05 -0.000594386
8.01056 0 1.3615 -0.00509698 -8.66029e-06 -0.000696055
8.02469 0 1.39917 -0.00539531 -1.12743e-05 -0.000752001
7.85669 0 0.839271 0.000674903 -6.60665e-07 6.44898e-05
7.86353 0 0.855372 0.000538667 -4.12406e-06 -7.64293e-05
7.87066 0 0.872138 0.000393075 -8.61387e-06 -0.000135062
7.87808 0 0.889596 0.000263901 -9.28335e-06 -0.000125786
7.88581 0 0.907777 0.000144156 -5.08994e-06 -0.000178308
7.89385 0 0.926708 4.75198e-05 -8.39063e-06 -0.00024772
7.90223 0 0.94642 -5.20139e-05 -1.15792e-05 -0.000237064
7.91095 0 0.966948 -0.000169758 -1.40473e-05 -0.000218142
7.92003 0 0.988324 -0.000334998 -1.39322e-05 -0.000198079
7.9295 0 1.01058 -0.000551088 -9.60989e-06 -0.00019877
7.93935 0 1.03376 -0.000774668 -8.02013e-06 -0.000218655
7.94961 0 1.0579 -0.000994562 -8.86531e-06 -0.00024846
7.96029 0 1.08303 -0.00122356 -1.03847e-05 -0.000269636
7.97141 0 1.1092 -0.00149481 -1.13627e-05 -0.000292601
7.98299 0 1.13646 -0.00181838 -1.22324e-05 -0.000319469
7.99505 0 1.16484 -0.00219097 -1.28787e-05 -0.00035217
8.00761 0 1.19439 -0.00258997 -1.42896e-05 -0.000376631
8.02069 0 1.22516 -0.00300694 -1.3404e-05 -0.000400168
8.03431 0 1.25721 -0.00340757 -1.34346e-05 -0.000417077
8.04849 0 1.29057 -0.00381163 -1.26428e-05 -0.000441321
8.06326 0 1.32531 -0.00418242 -1.18778e-05 -0.000458372
8.07864 0 1.3615 -0.00457951 -9.83538e-06 -0.000528134
8.09465 0 1.39917 -0.00486812 -1.26835e-05 -0.000533995
7.89865 0 0.839271 0.000855551 3.8572e-06 -0.000238754
7.9063 0 0.855372 0.000724558 -5.85394e-06 -0.000299628
7.91427 0 0.872138 0.00060568 -9.38459e-06 -0.000295355
7.92256 0 0.889597 0.000481445 -8.62195e-06 -0.000270079
7.93119 0 0.907776 0.000347219 -6.07472e-06 -0.000251151
7.94019 0 0.926708 0.000241233 -5.66755e-06 -0.000240225
7.94955 0 0.94642 0.000163318 -8.93676e-06 -0.000200008
7.9593 0 0.966948 0.000107909 -1.0522e-05 -0.00014061
7.96945 0 0.988324 2.0194e-05 -1.22947e-05 -8.71349e-05
7.98003 0 1.01058 -0.000166931 -1.34122e-05 -4.99609e-05
7.99104 0 1.03376 -0.00041312 -1.01695e-05 -4.68511e-05
8.0025 0 1.0579 -0.000667635 -7.83456e-06 -8.51317e-05
8.01444 0 1.08303 -0.000913415 -8.42343e-06 -0.000132862
8.02687 0 1.1092 -0.00116251 -9.77024e-06 -0.000177251
8.03981 0 1.13646 -0.00143737 -1.09805e-05 -0.000212694
8.05329 0 1.16483 -0.00175459 -1.16476e-05 -0.000249563
8.06733 0 1.19439 -0.00211216 -1.3179e-05 -0.000284357
8.08195 0 1.22516 -0.00250172 -1.40166e-05 -0.000313111
8.09717 0 1.25721 -0.0028954 -1.37032e-05 -0.000331702
8.11302 0 1.29057 -0.0032977 -1.30281e-05 -0.000351585
8.12952 0 1.32531 -0.0036742 -1.28625e-05 -0.000353782
8.14671 0 1.3615 -0.00408036 -1.09767e-05 -0.000399797
8.16461 0 1.39917 -0.00436777 -1.34436e-05 -0.00037514
8.18324 0 1.4384 -0.004849 -5.50436e-06 -0.000521822
7.94062 0 0.839271 0.000930882 -3.9727e-06 -0.000435551
7.94907 0 0.855372 0.000810891 -6.15036e-06 -0.000420653
7.95787 0 0.872138 0.000686968 -5.17862e-06 -0.00038703
7.96704 0 0.889597 0.000551986 -3.51719e-06 -0.000345843
7.97658 0 0.907777 0.000406908 -4.9166e-06 -0.000286639
7.98652 0 0.926707 0.000314366 -7.12777e-06 -0.000228144
7.99687 0 0.946421 0.000277448 -8.98164e-06 -0.000162906
8.00765 0 0.966948 0.000250891 -8.90786e-06 -9.64111e-05
8.01887 0 0.988324 0.00020408 -8.03382e-06 -3.05797e-05
8.03055 0 1.01058 9.93187e-05 -8.22952e-06 2.25434e-05
8.04273 0 1.03376 -8.89015e-05 -9.20205e-06 3.72446e-05
8.0554 0 1.0579 -0.000342047 -1.03409e-05 1.26298e-05
8.06859 0 1.08303 -0.000597679 -7.46384e-06 -3.09059e-05
8.08233 0 1.1092 -0.000835857 -6.50124e-06 -8.431e-05
8.09664 0 1.13646 -0.00107225 -9.65931e-06 -0.000134774
8.11154 0 1.16484 -0.0013296 -1.1492e-05 -0.000173625
8.12705 0 1.19439 -0.00162829 -1.33106e-05 -0.000200375
8.14321 0 1.22516 -0.00198527 -1.42494e-05 -0.000224238
8.16003 0 1.25721 -0.00237085 -1.55456e-05 -0.000240359
8.17755 0 1.29057 -0.00277941 -1.48477e-05 -0.000260977
8.19579 0 1.32531 -0.00316728 -1.46888e-05 -0.000262362
8.21479 0 1.3615 -0.00358841 -1.23266e-05 -0.000291565
8.23457 0 1.39917 -0.00388734 -1.48271e-05 -0.000246371
8.25516 0 1.4384 -0.00438131 -7.68303e-06 -0.000360745
8.27661 0 1.47926 -0.0044321 -1.94155e-05 -0.000220132
7.99184 0 0.855371 0.000803667 -4.25224e-06 -0.000496584
8.00148 0 0.872138 0.000656223 -2.5593e-06 -0.000446453
8.01152 0 0.889596 0.000500792 -3.99671e-06 -0.000360991
8.02197 0 0.907777 0.000405388 -6.67293e-06 -0.0002747
8.03286 0 0.926708 0.000371663 -7.66764e-06 -0.000181289
8.04419 0 0.94642 0.00036156 -7.14082e-06 -9.01742e-05
8.05599 0 0.966948 0.000349499 -6.27682e-06 1.56519e-06
8.06829 0 0.988324 0.000320712 -5.35958e-06 7.19032e-05
8.08108 0 1.01058 0.000252753 -4.1021e-06 0.000133342
8.09441 0 1.03376 0.00013759 -2.48727e-06 0.000166757
8.10829 0 1.0579 -5.67473e-05 -2.97654e-06 0.000146149
8.12274 0 1.08303 -0.000303425 -3.51298e-06 8.73435e-05
8.13779 0 1.1092 -0.000551079 -4.8248e-06 1.45709e-05
8.15346 0 1.13646 -0.000782437 -4.86288e-06 -5.22208e-05
8.16978 0 1.16483 -0.00100934 -7.0761e-06 -0.000109806
8.18677 0 1.19439 -0.00125432 -1.05872e-05 -0.000152713
8.20447 0 1.22516 -0.00154389 -1.26155e-05 -0.000182591
8.22289 0 1.25721 -0.0018821 -1.43603e-05 -0.000192132
8.24208 0 1.29057 -0.00227275 -1.46355e-05 -0.000196743
8.26206 0 1.32531 -0.0026674 -1.5396e-05 -0.000185397
8.28286 0 1.3615 -0.00309852 -1.36322e-05 -0.000200914
8.30453 0 1.39917 -0.00341484 -1.54321e-05 -0.000144083
8.32708 0 1.4384 -0.00390855 -1.04595e-05 -0.000221066
8.35057 0 1.47926 -0.00395957 -1.75394e-05 -7.16293e-05
8.03461 0 0.855372 0.000715381 -2.48033e-06 -0.000555166
8.04508 0 0.872138 0.000561767 -5.15148e-06 -0.000446215
8.056 0 0.889597 0.000474809 -7.47195e-06 -0.000341378
8.06736 0 0.907776 0.000450725 -8.18595e-06 -0.000226113
8.07919 0 0.926707 0.000451809 -8.12957e-06 -0.000123095
8.09151 0 0.946421 0.000454588 -8.78371e-06 -2.53564e-05
8.10434 0 0.966948 0.000451103 -7.75966e-06 6.60304e-05
8.1177 0 0.988324 0.000427455 -5.96469e-06 0.000136194
8.13161 0 1.01058 0.000393161 -4.31903e-06 0.000197871
8.1461 0 1.03376 0.000328349 -2.68483e-06 0.000245377
8.16118 0 1.0579 0.00022146 -7.02791e-08 0.000247452
8.17689 0 1.08303 4.15903e-05 8.2562e-07 0.000207919
8.19325 0 1.1092 -0.00020115 -2.77676e-07 0.000128049
8.21028 0 1.13646 -0.000460665 -4.59556e-06 3.63496e-05
8.22802 0 1.16484 -0.000700967 -4.98154e-06 -4.69641e-05
8.24649 0 1.19439 -0.000921266 -5.7038e-06 -0.000102987
8.26572 0 1.22516 -0.00115158 -9.38711e-06 -0.000143506
8.28575 0 1.25721 -0.00141208 -1.35776e-05 -0.000156702
8.30661 0 1.29057 -0.00174189 -1.38851e-05 -0.000162229
8.32832 0 1.32531 -0.00212036 -1.59106e-05 -0.000138767
8.35093 0 1.3615 -0.00256549 -1.41703e-05 -0.000129116
8.37448 0 1.39917 -0.00291699 -1.62243e-05 -5.65967e-05
8.399 0 1.4384 -0.00341674 -1.35159e-05 -9.54597e-05
8.42454 0 1.47926 -0.00349361 -1.82172e-05 4.60737e-05
8.07738 0 0.855372 0.000585335 -4.05463e-06 -0.000517943
8.08869 0 0.872138 0.000517338 -7.44616e-06 -0.000396276
8.10048 0 0.889597 0.000509431 -8.32855e-06 -0.000265474
8.11275 0 0.907777 0.000522759 -7.98011e-06 -0.000140237
8.12553 0 0.926708 0.000533707 -7.82445e-06 -2.24558e-05
8.13883 0 0.94642 0.000537966 -6.78368e-06 8.11869e-05
8.15269 0 0.966948 0.000528948 -4.87258e-06 0.000156445
8.16712 0 0.988324 0.000502733 -3.83066e-06 0.000226389
8.18214 0 1.01058 0.000471061 -3.14487e-06 0.000293554
8.19779 0 1.03376 0.000417832 -2.02011e-06 0.000343015
8.21408 0 1.0579 0.000343848 -1.43534e-06 0.000367758
8.23104 0 1.08303 0.00023531 -1.41217e-07 0.000365628
8.24871 0 1.1092 7.3099e-05 1.60396e-06 0.000327018
8.26711 0 1.13646 -0.000154352 3.08657e-06 0.000242931
8.28626 0 1.16483 -0.000419384 4.06111e-06 0.000126953
8.30621 0 1.19439 -0.000667407 1.95935e-07 2.57733e-05
8.32698 0 1.22516 -0.000905163 -1.12646e-06 -5.58423e-05
8.34861 0 1.25721 -0.00111595 -6.52924e-06 -9.12708e-05
8.37113 0 1.29057 -0.00137137 -1.10281e-05 -0.000109253
8.39459 0 1.32531 -0.00167877 -1.45566e-05 -9.21392e-05
8.41901 0 1.3615 -0.00208689 -1.39444e-05 -8.25943e-05
8.44444 0 1.39917 -0.00244713 -1.69007e-05 -7.99837e-06
8.47093 0 1.4384 -0.00294699 -1.30951e-05 -2.31845e-06
8.4985 0 1.47926 -0.0030635 -1.67156e-05 0.000160541
8.12014 0 0.855372 0.000546396 -9.12334e-06 -0.000426835
8.1323 0 0.872138 0.000563645 -8.90417e-06 -0.000289379
8.14496 0 0.889596 0.000592435 -9.11766e-06 -0.00016918
8.15814 0 0.907777 0.000616479 -1.03094e-05 -5.989e-05
8.17186 0 0.926708 0.000635161 -9.96997e-06 3.54404e-05