# kMean  POINT_DATA 63840
# x  y  z  kMean
0 0.5 3.39583e-17 0.00375
0 0.5 -0.00617931 0.00375
0 0.5 0.00617931 0.00375
0.0124865 0.5 -0.00617931 0.0037503
0.0124865 0.5 0.00617931 0.00375032
0 0.5 -0.0688207 0.00375
0 0.5 0.0688207 0.00375
0.0124865 0.5 -0.0688207 0.0037503
0.0124865 0.5 0.0688207 0.00375032
0 0.5 -0.075 0.00375
0 0.5 0.075 0.00375
0 0.5 -0.0811793 0.00375
0 0.5 0.0811793 0.00375
0.0124865 0.5 -0.0811793 0.0037503
0.0124865 0.5 0.0811793 0.00375034
0.075776 0.5 -0.0375 0.00375186
0.075776 0.5 0.0375 0.00375193
0.075776 0.5 -0.1125 0.00375184
0.075776 0.5 0.1125 0.00375207
0 0.5 -0.143821 0.00375
0 0.5 0.143821 0.00375
0.0124865 0.5 -0.143821 0.0037503
0.0124865 0.5 0.143821 0.00375034
0 0.5 -0.15 0.00375
0 0.5 0.15 0.00375
0.151149 0.5 -0.00137318 0.00375414
0 0.5 -0.156179 0.00375
0 0.5 0.156179 0.00375
0.0124865 0.5 -0.156179 0.0037503
0.0124865 0.5 0.156179 0.00375037
0.151149 0.5 0.075 0.0037543
0.151149 0.5 -0.075 0.00375409
0.075776 0.5 -0.1875 0.00375186
0.075776 0.5 0.1875 0.00375225
0.151149 0.5 0.15 0.00375456
0.151149 0.5 -0.15 0.00375412
0 0.5 -0.218821 0.00375
0 0.5 0.218821 0.00375
0.0124865 0.5 -0.218821 0.0037503
0.0124865 0.5 0.218821 0.00375037
0.219992 0.5 0.0375 0.00375633
0.219993 0.5 -0.0375 0.00375619
0 0.5 -0.225 0.00375
0 0.5 0.225 0.00375
0 0.5 -0.231179 0.00375
0 0.5 0.231179 0.00375
0.0124865 0.5 -0.231179 0.00375032
0.0124865 0.5 0.231179 0.00375041
0.219992 0.5 0.1125 0.00375658
0.219993 0.5 -0.1125 0.00375619
0.151149 0.5 -0.225 0.00375426
0.151149 0.5 0.225 0.00375491
0.075776 0.5 -0.2625 0.00375195
0.075776 0.5 0.2625 0.00375247
0.288069 0.5 -0.00137318 0.00376079
0.219992 0.5 0.1875 0.00375701
0.219993 0.5 -0.1875 0.00375631
0 0.5 0.293821 0.00375
0 0.5 -0.293821 0.00375
0.0124865 0.5 -0.293821 0.00375032
0.0124865 0.5 0.293821 0.00375041
0.288069 0.5 -0.075 0.00376078
0.288069 0.5 0.075 0.00376099
0 0.5 -0.3 0.00375
0 0.5 0.3 0.00375
0 0.5 0.306179 0.00375
0 0.5 -0.306179 0.00375
0.0124865 0.5 -0.306179 0.00375034
0.0124865 0.5 0.306179 0.00375045
0.288069 0.5 -0.15 0.00376087
0.288069 0.5 0.15 0.0037613
0.151149 0.5 -0.3 0.00375449
0.151149 0.5 0.3 0.00375533
0.219992 0.5 -0.2625 0.0037566
0.219992 0.5 0.2625 0.00375757
0.075776 0.5 0.3375 0.00375271
0.075776 0.5 -0.3375 0.00375208
0.350249 0.5 -0.0375 0.00376505
0.350249 0.5 0.0375 0.00376513
0.288069 0.5 -0.225 0.0037611
0.288069 0.5 0.225 0.00376177
0.350249 0.5 0.1125 0.00376533
0.350249 0.5 -0.1125 0.0037651
0 0.5 0.368821 0.00375
0 0.5 -0.368821 0.00375
0.0124865 0.5 -0.368821 0.00375034
0.0124865 0.5 0.368821 0.00375045
0 0.5 -0.375 0.00375
0 0.5 0.375 0.00375
0 0.5 -0.381179 0.00375
0 0.5 0.381179 0.00375
0.0124865 0.5 -0.381179 0.00375037
0.0124865 0.5 0.381179 0.00375049
0.350249 0.5 -0.1875 0.00376529
0.350249 0.5 0.1875 0.00376569
0.219992 0.5 -0.3375 0.00375701
0.219992 0.5 0.3375 0.00375821
0.151149 0.5 -0.375 0.00375479
0.151149 0.5 0.375 0.00375579
0.411736 0.5 -0.00137318 0.00377218
0.288069 0.5 -0.3 0.00376147
0.288069 0.5 0.3 0.00376238
0.411736 0.5 -0.075 0.00377224
0.411736 0.5 0.075 0.00377232
0.075776 0.5 -0.4125 0.00375225
0.075776 0.5 0.4125 0.00375296
0.350249 0.5 -0.2625 0.0037656
0.350249 0.5 0.2625 0.00376624
0.411736 0.5 -0.15 0.00377234
0.411736 0.5 0.15 0.00377252
0 0.5 -0.443821 0.00375
0 0.5 0.443821 0.00375
0.0124865 0.5 -0.443821 0.00375037
0.0124865 0.5 0.443821 0.00375049
0 0.5 -0.45 0.00375
0 0.5 0.45 0.00375
0 0.5 -0.456179 0.00375
0 0.5 0.456179 0.00375
0.0124865 0.5 -0.456179 0.0037504
0.0124865 0.5 0.456179 0.00375053
0.219992 0.5 -0.4125 0.00375748
0.219993 0.5 0.4125 0.0037589
0.411736 0.5 -0.225 0.00377253
0.411736 0.5 0.225 0.00377286
0.467897 0.5 0.0375 0.00377896
0.467897 0.5 -0.0375 0.00377895
0.288069 0.5 -0.375 0.00376193
0.288069 0.5 0.375 0.00376308
0.151149 0.5 -0.45 0.00375513
0.151149 0.5 0.45 0.00375627
0.467897 0.5 -0.1125 0.00377901
0.467897 0.5 0.1125 0.00377903
0.350249 0.5 0.3375 0.00376693
0.350249 0.5 -0.3375 0.00376607
0.075776 0.5 -0.4875 0.00375243
0.075776 0.5 0.4875 0.0037532
0.467897 0.5 -0.1875 0.00377912
0.467897 0.5 0.1875 0.0037792
0.411736 0.5 -0.3 0.00377283
0.411736 0.5 0.3 0.00377336
0 0.5 -0.518821 0.00375
0 0.5 0.518821 0.00375
0.0124865 0.5 0.518821 0.00375053
0.0124865 0.5 -0.518821 0.0037504
0.523432 0.5 -0.00137318 0.00378845
0 0.5 -0.525 0.00375
0 0.5 0.525 0.00375
0.523432 0.5 -0.075 0.00378852
0.523432 0.5 0.075 0.00378852
0 0.5 -0.531179 0.00375
0 0.5 0.531179 0.00375
0.0124865 0.5 -0.531179 0.00375043
0.0124865 0.5 0.531179 0.00375056
0.288069 0.5 -0.45 0.00376242
0.288069 0.5 0.45 0.00376381
0.219992 0.5 -0.4875 0.00375798
0.219993 0.5 0.4875 0.00375959
0.467897 0.5 -0.2625 0.00377928
0.467897 0.5 0.2625 0.0037795
0.350249 0.5 -0.4125 0.00376656
0.350249 0.5 0.4125 0.00376769
0.523432 0.5 -0.15 0.00378852
0.523432 0.5 0.15 0.00378854
0.151149 0.5 -0.525 0.00375547
0.151149 0.5 0.525 0.00375673
0.411736 0.5 -0.375 0.00377319
0.411736 0.5 0.375 0.00377396
0.075776 0.5 -0.5625 0.00375261
0.075776 0.5 0.5625 0.00375342
0.523432 0.5 -0.225 0.00378852
0.523432 0.5 0.225 0.00378861
0.574156 0.5 -0.0375 0.00379755
0.574156 0.5 0.0375 0.00379755
0.467897 0.5 0.3375 0.00377994
0.467897 0.5 -0.3375 0.00377955
0.574156 0.5 -0.1125 0.0037975
0.574156 0.5 0.1125 0.00379748
0 0.5 -0.593821 0.00375
0 0.5 0.593821 0.00375
0.0124865 0.5 -0.593821 0.00375043
0.0124865 0.5 0.593821 0.00375056
0.288069 0.5 -0.525 0.00376289
0.288069 0.5 0.525 0.00376454
0 0.5 -0.6 0.00375
0 0.5 0.6 0.00375
0.350249 0.5 -0.4875 0.00376705
0.350249 0.5 0.4875 0.00376848
0.523432 0.5 -0.3 0.00378854
0.523432 0.5 0.3 0.00378879
0.219992 0.5 -0.5625 0.00375847
0.219992 0.5 0.5625 0.00376025
0.574156 0.5 -0.1875 0.0037974
0.574156 0.5 0.1875 0.00379739
0 0.5 -0.606179 0.00375
0 0.5 0.606179 0.00375
0.0124865 0.5 -0.606179 0.00375046
0.0124865 0.5 0.606179 0.00375059
0.411736 0.5 -0.45 0.00377352
0.411736 0.5 0.45 0.00377462
0.151149 0.5 -0.6 0.0037558
0.151149 0.5 0.6 0.00375715
0.62168 0.5 2.64545e-17 0.00380853
0.467897 0.5 0.4125 0.00378047
0.467897 0.5 -0.4125 0.00377976
0.624316 0.5 0.0729402 0.00380919
0.624316 0.5 -0.075 0.00380913
0.574156 0.5 -0.2625 0.00379727
0.574157 0.5 0.2625 0.00379733
0.075776 0.5 -0.6375 0.00375278
0.075776 0.5 0.6375 0.00375361
0.624316 0.5 -0.15 0.0038089
0.624316 0.5 0.15 0.00380902
0.523432 0.5 -0.375 0.0037885
0.523432 0.5 0.375 0.00378904
0.350249 0.5 -0.5625 0.00376748
0.350249 0.5 0.5625 0.00376925
0.624316 0.5 -0.225 0.00380855
0.624316 0.5 0.225 0.00380877
0.288069 0.5 0.6 0.00376523
0.288069 0.5 -0.6 0.00376333
0.574156 0.5 -0.3375 0.00379703
0.574156 0.5 0.3375 0.00379735
0.411736 0.5 -0.525 0.00377378
0.411736 0.5 0.525 0.00377528
0 0.5 -0.668821 0.00375
0 0.5 0.668821 0.00375
0.0124865 0.5 -0.668821 0.00375046
0.0124865 0.5 0.668821 0.00375059
0.67013 0.5 0.0375 0.00382035
0.67013 0.5 -0.0375 0.00382028
0.219993 0.5 -0.6375 0.00375892
0.219993 0.5 0.6375 0.00376086
0 0.5 -0.675 0.00375
0 0.5 0.675 0.00375
0.467897 0.5 0.4875 0.00378103
0.467897 0.5 -0.4875 0.0037799
0.67013 0.5 -0.1125 0.00381999
0.67013 0.5 0.1125 0.00382018
0 0.5 -0.681179 0.00375
0 0.5 0.681179 0.00375
0.0124865 0.5 -0.681179 0.00375048
0.0124865 0.5 0.681179 0.00375062
0.523432 0.5 -0.45 0.00378836
0.523432 0.5 0.45 0.00378935
0.151149 0.5 -0.675 0.00375609
0.151149 0.5 0.675 0.00375753
0.624316 0.5 -0.3 0.00380804
0.624316 0.5 0.3 0.0038085
0.67013 0.5 0.1875 0.00381982
0.67013 0.5 -0.1875 0.00381952
0.574156 0.5 -0.4125 0.00379668
0.574157 0.5 0.4125 0.00379742
0.708171 0.5 1.88651e-17 0.00383163
0.075776 0.5 -0.7125 0.00375293
0.075776 0.5 0.7125 0.00375376
0.715434 0.5 0.0736268 0.00383352
0.715434 0.5 -0.075 0.00383349
0.67013 0.5 0.2625 0.00381934
0.67013 0.5 -0.2625 0.00381884
0.350249 0.5 -0.6375 0.00376785
0.350249 0.5 0.6375 0.00376997
0.411736 0.5 -0.6 0.00377395
0.411736 0.5 0.6 0.0037759
0.624316 0.5 -0.375 0.00380735
0.624316 0.5 0.375 0.00380825
0.715434 0.5 -0.15 0.00383287
0.715434 0.5 0.15 0.00383346
0.467897 0.5 -0.5625 0.00377992
0.467897 0.5 0.5625 0.00378158
0.288069 0.5 -0.675 0.00376369
0.288069 0.5 0.675 0.00376585
0.523432 0.5 -0.525 0.00378808
0.523432 0.5 0.525 0.00378965
0 0.5 -0.743821 0.00375
0 0.5 0.743821 0.00375
0.0124865 0.5 -0.743821 0.00375048
0.0124865 0.5 0.743821 0.00375062
0.219992 0.5 0.7125 0.00376139
0.219992 0.5 -0.7125 0.00375932
0.715434 0.5 -0.225 0.00383196
0.715434 0.5 0.225 0.00383287
0 0.5 -0.75 0.00375
0 0.5 0.75 0.00375
0.67013 0.5 0.3375 0.0038188
0.67013 0.5 -0.3375 0.0038179
0.574156 0.5 -0.4875 0.00379616
0.574156 0.5 0.4875 0.0037975
0 0.5 -0.756179 0.00375
0 0.5 0.756179 0.00375
0.0124865 0.5 -0.756179 0.0037505
0.0124865 0.5 0.756179 0.00375064
0.756813 0.5 -0.0375 0.00384653
0.756813 0.5 0.0375 0.00384678
0.151149 0.5 -0.75 0.00375634
0.151149 0.5 0.75 0.00375784
0.756813 0.5 -0.1125 0.00384589
0.756813 0.5 0.1125 0.00384659
0.624316 0.5 -0.45 0.00380647
0.624316 0.5 0.45 0.003808
0.715434 0.5 -0.3 0.00383072
0.715434 0.5 0.3 0.00383209
0.756813 0.5 0.1875 0.00384599
0.756813 0.5 -0.1875 0.00384485
0.67013 0.5 -0.4125 0.00381673
0.67013 0.5 0.4125 0.00381829
0.411736 0.5 -0.675 0.00377402
0.411736 0.5 0.675 0.00377646
0.467897 0.5 0.6375 0.00378206
0.467897 0.5 -0.6375 0.00377982
0.075776 0.5 -0.7875 0.00375305
0.075776 0.5 0.7875 0.00375388
0.350249 0.5 -0.7125 0.00376811
0.350249 0.5 0.7125 0.0037706
0.523432 0.5 -0.6 0.00378766
0.523432 0.5 0.6 0.0037899
0.797732 0.5 2.68882e-17 0.00386153
0.756813 0.5 -0.2625 0.00384341
0.756814 0.5 0.2625 0.00384507
0.797732 0.5 0.0736268 0.00386154
0.797732 0.5 -0.075 0.00386088
0.288069 0.5 -0.75 0.00376397
0.288069 0.5 0.75 0.00376638
0.574156 0.5 -0.5625 0.00379546
0.574157 0.5 0.5625 0.00379754
0.715434 0.5 -0.375 0.00382918
0.715434 0.5 0.375 0.00383121
0.797732 0.5 -0.15 0.00385974
0.797732 0.5 0.15 0.00386121
0.624316 0.5 -0.525 0.00380537
0.624316 0.5 0.525 0.00380771
0.219992 0.5 -0.7875 0.00375964
0.219992 0.5 0.7875 0.00376182
0 0.5 -0.818821 0.00375
0 0.5 0.818821 0.00375
0.0124865 0.5 0.818821 0.00375064
0.0124865 0.5 -0.818821 0.0037505
0 0.5 -0.825 0.00375
0 0.5 0.825 0.00375
0.756813 0.5 0.3375 0.00384391
0.756814 0.5 -0.3375 0.00384158
0.67013 0.5 -0.4875 0.00381529
0.67013 0.5 0.4875 0.00381771
0.797732 0.5 -0.225 0.00385809
0.797732 0.5 0.225 0.00386028
0 0.5 -0.831179 0.00375
0 0.5 0.831179 0.00375
0.0124865 0.5 -0.831179 0.00375052
0.0124865 0.5 0.831179 0.00375065
0.835106 0.5 0.0375 0.00387605
0.835106 0.5 -0.0375 0.0038755
0.151149 0.5 -0.825 0.00375654
0.151149 0.5 0.825 0.00375808
0.835106 0.5 0.1125 0.0038759
0.835106 0.5 -0.1125 0.00387436
0.715434 0.5 -0.45 0.00382731
0.715434 0.5 0.45 0.00383026
0.797732 0.5 -0.3 0.00385596
0.797732 0.5 0.3 0.00385897
0.467897 0.5 0.7125 0.00378246
0.467897 0.5 -0.7125 0.00377959
0.523432 0.5 -0.675 0.00378709
0.523432 0.5 0.675 0.00379008
0.411736 0.5 -0.75 0.00377397
0.411736 0.5 0.75 0.00377691
0.835106 0.5 -0.1875 0.00387262
0.835106 0.5 0.1875 0.00387509
0.574156 0.5 -0.6375 0.00379459
0.574157 0.5 0.6375 0.00379752
0.350249 0.5 -0.7875 0.00376826
0.350249 0.5 0.7875 0.00377111
0.756813 0.5 -0.4125 0.00383937
0.756814 0.5 0.4125 0.00384262
0.075776 0.5 -0.8625 0.00375314
0.075776 0.5 0.8625 0.00375396
0.624316 0.5 0.6 0.00380734
0.624316 0.5 -0.6 0.00380407
0.872064 0.5 5.91974e-17 0.00389203
0.870122 0.5 0.075 0.00389137
0.288069 0.5 -0.825 0.00376415
0.288069 0.5 0.825 0.00376679
0.67013 0.5 -0.5625 0.0038136
0.67013 0.5 0.5625 0.00381703
0.872064 0.5 -0.075 0.00389095
0.835106 0.5 -0.2625 0.00387028
0.835106 0.5 0.2625 0.00387373
0.797732 0.5 -0.375 0.00385335
0.797732 0.5 0.375 0.00385736
0.872064 0.5 0.14794 0.0038919
0.872064 0.5 -0.15 0.00388915
0.715434 0.5 -0.525 0.00382514
0.715434 0.5 0.525 0.00382921
0.219992 0.5 0.8625 0.00376214
0.219993 0.5 -0.8625 0.00375987
0 0.5 -0.893821 0.00375
0 0.5 0.893821 0.00375
0.0124865 0.5 -0.893821 0.00375052
0.0124865 0.5 0.893821 0.00375065
0 0.5 -0.9 0.00375
0 0.5 0.9 0.00375
0.756813 0.5 -0.4875 0.00383678
0.756813 0.5 0.4875 0.00384125
0.872064 0.5 -0.225 0.0038866
0.872064 0.5 0.225 0.00389066
0.835106 0.5 -0.3375 0.00386743
0.835106 0.5 0.3375 0.00387194
0 0.5 0.906179 0.00375
0 0.5 -0.906179 0.00375
0.0124865 0.5 -0.906179 0.00375053
0.0124865 0.5 0.906179 0.00375066
0.90582 0.5 -0.0375 0.00390722
0.90582 0.5 0.0375 0.00390812
0.151149 0.5 -0.9 0.00375667
0.151149 0.5 0.9 0.00375825
0.90582 0.5 -0.1125 0.0039055
0.905821 0.5 0.1125 0.00390815
0.523432 0.5 -0.75 0.00378638
0.523432 0.5 0.75 0.00379016
0.574156 0.5 -0.7125 0.00379355
0.574156 0.5 0.7125 0.0037974
0.797732 0.5 -0.45 0.00385028
0.797732 0.5 0.45 0.00385559
0.467897 0.5 0.7875 0.00378275
0.467897 0.5 -0.7875 0.00377922
0.624316 0.5 -0.675 0.00380257
0.624316 0.5 0.675 0.00380688
0.411736 0.5 -0.825 0.00377379
0.411736 0.5 0.825 0.00377724
0.872064 0.5 0.3 0.00388879
0.872064 0.5 -0.3 0.00388339
0.67013 0.5 -0.6375 0.00381169
0.67013 0.5 0.6375 0.00381626
0.90582 0.5 0.1875 0.0039072
0.905821 0.5 -0.1875 0.00390291
0.350249 0.5 -0.8625 0.0037683
0.350249 0.5 0.8625 0.00377149
0.835106 0.5 -0.4125 0.00386393
0.835106 0.5 0.4125 0.00386978
0.715434 0.5 -0.6 0.0038227
0.715434 0.5 0.6 0.00382802
0.939201 0.5 2.75387e-17 0.00392382
0.075776 0.5 0.9375 0.003754
0.075776 0.5 -0.9375 0.0037532
0.939111 0.5 0.075 0.00392449
0.939201 0.5 -0.075 0.00392226
0.756813 0.5 0.5625 0.00383971
0.756814 0.5 -0.5625 0.00383387
0.90582 0.5 0.2625 0.00390537
0.905821 0.5 -0.2625 0.00389942
0.288069 0.5 -0.9 0.00376423
0.288069 0.5 0.9 0.00376708
0.872064 0.5 -0.375 0.00387957
0.872064 0.5 0.375 0.00388641
0.939201 0.5 0.148627 0.00392403
0.939201 0.5 -0.15 0.00391978
0.797732 0.5 -0.525 0.00384683
0.797732 0.5 0.525 0.00385366
0.219992 0.5 0.9375 0.00376235
0.219992 0.5 -0.9375 0.00376001
0.939201 0.5 -0.225 0.00391634
0.939201 0.5 0.225 0.0039228
0.905821 0.5 -0.3375 0.00389531
0.90582 0.5 0.3375 0.00390288
0.835106 0.5 -0.4875 0.00386
0.835106 0.5 0.4875 0.00386753
0 0.5 0.968821 0.00375
0 0.5 -0.968821 0.00375
0.0124865 0.5 -0.968821 0.00375053
0.0124865 0.5 0.968821 0.00375066
0.969689 0.5 -0.0375 0.00393876
0.969689 0.5 0.0375 0.00394009
0.574156 0.5 -0.7875 0.00379237
0.574156 0.5 0.7875 0.00379718
0 0.5 -0.975 0.00375
0 0.5 0.975 0.00375
0.624316 0.5 -0.75 0.00380092
0.624316 0.5 0.75 0.00380632
0.969689 0.5 -0.1125 0.00393647
0.96969 0.5 0.1125 0.00394044
0.523432 0.5 -0.825 0.00378552
0.523432 0.5 0.825 0.00379012
0.67013 0.5 0.7125 0.00381538
0.67013 0.5 -0.7125 0.00380959
0 0.5 -0.981179 0.00375
0 0.5 0.981179 0.00375
0.467897 0.5 0.8625 0.00378291
0.467897 0.5 -0.8625 0.00377873
0.0124865 0.5 -0.981179 0.00375053
0.0124865 0.5 0.981179 0.00375067
0.872064 0.5 -0.45 0.00387516
0.872064 0.5 0.45 0.00388371
0.715434 0.5 -0.675 0.00382004
0.715434 0.5 0.675 0.0038267
0.939201 0.5 -0.3 0.00391199
0.939201 0.5 0.3 0.0039205
0.151149 0.5 0.975 0.00375835
0.151149 0.5 -0.975 0.00375674
0.969689 0.5 -0.1875 0.00393317
0.969689 0.5 0.1875 0.00393968
0.756813 0.5 -0.6375 0.00383069
0.756813 0.5 0.6375 0.003838
0.411736 0.5 -0.9 0.00377349
0.411736 0.5 0.9 0.00377743
0.90582 0.5 -0.4125 0.00389052
0.90582 0.5 0.4125 0.00389985
0.995005 0.5 0.0749309 0.00395239
0.797732 0.5 -0.6 0.00384306
0.797732 0.5 0.6 0.0038515
1.00005 0.5 -8.47123e-18 0.00395402
0.350249 0.5 -0.9375 0.00376822
0.350249 0.5 0.9375 0.00377173
1.00005 0.5 -0.0749309 0.00395202
0.969689 0.5 -0.2625 0.00392881
0.969689 0.5 0.2625 0.00393782
0.835106 0.5 -0.5625 0.00385569
0.835106 0.5 0.5625 0.003865
1.00005 0.5 -0.149862 0.00394898
0.939201 0.5 -0.375 0.00390677
0.939201 0.5 0.375 0.00391735
1.00029 0.5 0.148988 0.00395466
0.075776 0.5 -1.0125 0.00375323
0.075776 0.5 1.0125 0.00375402
0.288069 0.5 0.975 0.00376723
0.288069 0.5 -0.975 0.00376421
0.872064 0.5 -0.525 0.00387026
0.872064 0.5 0.525 0.00388076
1.00005 0.5 0.224793 0.00395379
1.00005 0.5 -0.224793 0.00394488
0.969689 0.5 0.3375 0.00393479
0.96969 0.5 -0.3375 0.00392342
1.0271 0.5 -0.0368226 0.00396915
1.0271 0.5 0.0368226 0.00397084
0.90582 0.5 0.4875 0.0038965
0.905821 0.5 -0.4875 0.00388517
1.0271 0.5 -0.110468 0.00396641
1.0271 0.5 0.110468 0.00397334
0.67013 0.5 0.7875 0.00381438
0.67013 0.5 -0.7875 0.00380734
0.624316 0.5 0.825 0.00380563
0.624316 0.5 -0.825 0.00379912
0.219993 0.5 -1.0125 0.00376007
0.219993 0.5 1.0125 0.00376245
0.574156 0.5 -0.8625 0.00379104
0.574156 0.5 0.8625 0.00379682
0.715434 0.5 -0.75 0.00381721
0.715434 0.5 0.75 0.00382526
0.756813 0.5 0.7125 0.00383615
0.756814 0.5 -0.7125 0.00382731
0.523432 0.5 -0.9 0.00378453
0.523432 0.5 0.9 0.00378993
0.939201 0.5 -0.45 0.00390074
0.939201 0.5 0.45 0.00391359
1.04168 0.5 0 0.00397822
1.0271 0.5 -0.184113 0.00396259
1.0271 0.5 0.184113 0.00397107
0 0.5 -1.04382 0.00375
0 0.5 1.04382 0.00375
0.0124865 0.5 -1.04382 0.00375053
0.0124865 0.5 1.04382 0.00375067
1.00005 0.5 -0.299723 0.00393968
1.00005 0.5 0.299723 0.00395143
1.04168 0.5 -0.0729162 0.00397589
1.04168 0.5 0.0729162 0.00397948
0.797732 0.5 -0.675 0.00383903
0.797732 0.5 0.675 0.00384915
0.467897 0.5 0.9375 0.00378291
0.467897 0.5 -0.9375 0.00377809
0 0.5 -1.05 0.00375
0 0.5 1.05 0.00375
0.835106 0.5 -0.6375 0.00385107
0.835106 0.5 0.6375 0.0038622
1.04168 0.5 -0.145832 0.00397249
1.04168 0.5 0.145832 0.0039797
0.969689 0.5 -0.4125 0.00391688
0.96969 0.5 0.4125 0.00393079
0 0.5 -1.05618 0.00375
0 0.5 1.05618 0.00375
0.0124865 0.5 -1.05618 0.00375054
0.0124865 0.5 1.05618 0.00375066
1.05695 0.5 -0.0360764 0.00398555
1.05695 0.5 0.0360764 0.00398745
0.411736 0.5 -0.975 0.00377306
0.411736 0.5 0.975 0.00377746
0.872064 0.5 -0.6 0.00386493
0.872064 0.5 0.6 0.00387753
1.0271 0.5 -0.257759 0.00395767
1.0271 0.5 0.257759 0.00396947
0.151149 0.5 -1.05 0.00375676
0.151149 0.5 1.05 0.00375836
1.05695 0.5 0.108229 0.00399001
1.05695 0.5 -0.108229 0.00398256
1.04168 0.5 -0.218749 0.00396799
1.04168 0.5 0.218749 0.00397879
0.90582 0.5 -0.5625 0.00387924
0.905821 0.5 0.5625 0.00389289
1.00005 0.5 -0.374654 0.00393333
1.00005 0.5 0.374654 0.0039479
0.350249 0.5 1.0125 0.00377181
0.350249 0.5 -1.0125 0.00376801
1.05695 0.5 -0.180382 0.00397848
1.05695 0.5 0.180382 0.00398807
1.07319 0.5 0.0709442 0.00399813
0.939201 0.5 -0.525 0.00389415
0.939201 0.5 0.525 0.00390946
1.0271 0.5 -0.331404 0.00395161
1.0271 0.5 0.331404 0.0039666
1.08112 0.5 3.23815e-17 0.00400106
1.04168 0.5 -0.291665 0.00396236
1.04168 0.5 0.291665 0.00397665
1.08112 0.5 -0.0709442 0.00399841
0.969689 0.5 -0.4875 0.00390952
0.96969 0.5 0.4875 0.00392616
1.05695 0.5 0.252535 0.00398667
1.05695 0.5 -0.252535 0.00397328
0.288069 0.5 -1.05 0.00376408
0.288069 0.5 1.05 0.00376726
0.075776 0.5 -1.0875 0.00375324
0.075776 0.5 1.0875 0.00375399
1.08112 0.5 -0.141888 0.00399465
1.08145 0.5 0.140165 0.00400255
0.715434 0.5 0.825 0.0038237
0.715434 0.5 -0.825 0.00381423
0.756813 0.5 0.7875 0.00383416
0.756814 0.5 -0.7875 0.00382377
0.67013 0.5 -0.8625 0.00380496
0.67013 0.5 0.8625 0.00381327
0.797732 0.5 -0.75 0.00383481
0.797732 0.5 0.75 0.00384664
0.624316 0.5 -0.9 0.00379719
0.624316 0.5 0.9 0.00380482
1.00005 0.5 -0.449585 0.00392594
1.00005 0.5 0.449585 0.00394347
0.835106 0.5 -0.7125 0.00384619
0.835106 0.5 0.7125 0.0038592
0.574156 0.5 -0.9375 0.00378959
0.574157 0.5 0.9375 0.00379632
1.10076 0.5 -0.0349809 0.00401195
1.10076 0.5 0.0349809 0.00401418
1.08112 0.5 -0.212832 0.00398977
1.08112 0.5 0.212832 0.00400243
0.872064 0.5 -0.675 0.0038593
0.872064 0.5 0.675 0.00387403
1.04168 0.5 -0.364581 0.00395552
1.04168 0.5 0.364581 0.00397326
1.0271 0.5 0.405049 0.00396257
1.0271 0.5 -0.405049 0.00394432
1.05695 0.5 -0.324688 0.00396692
1.05695 0.5 0.324688 0.00398398
1.10076 0.5 -0.104943 0.00400857
1.10076 0.5 0.104943 0.0040153
0.523432 0.5 0.975 0.0037896
0.523432 0.5 -0.975 0.00378342
0.90582 0.5 0.6375 0.00388897
0.905821 0.5 -0.6375 0.00387283
0.219992 0.5 1.0875 0.00376243
0.219992 0.5 -1.0875 0.00376004
1.11376 0.5 3.81639e-17 0.00402126
0.939201 0.5 0.6 0.00390495
0.939201 0.5 -0.6 0.00388719
1.10076 0.5 -0.174905 0.00400407
1.10076 0.5 0.174905 0.0040154
0.467897 0.5 -1.0125 0.00377733
0.467897 0.5 1.0125 0.00378274
1.11376 0.5 -0.0693118 0.00401833
1.11376 0.5 0.0693118 0.00402304
1.08112 0.5 0.283777 0.00400056
1.08112 0.5 -0.283777 0.00398374
0 0.5 -1.11882 0.00375
0 0.5 1.11882 0.00375
0.0124865 0.5 -1.11882 0.00375054
0.0124865 0.5 1.11882 0.00375066
0.969689 0.5 -0.5625 0.00390187
0.969689 0.5 0.5625 0.00392126
1.11376 0.5 0.138624 0.00402374
1.11376 0.5 -0.138624 0.00401426
0 0.5 -1.125 0.00375
0 0.5 1.125 0.00375
1.10076 0.5 0.244866 0.00401431
1.10076 0.5 -0.244866 0.00399842
0.411736 0.5 -1.05 0.0037725
0.411736 0.5 1.05 0.00377734
1.05695 0.5 -0.396841 0.00395932
1.05695 0.5 0.396841 0.00398005
1.00005 0.5 -0.524516 0.00391791
1.00005 0.5 0.524516 0.0039384
1.04168 0.5 -0.437497 0.00394763
1.04168 0.5 0.437497 0.00396879
0 0.5 -1.13118 0.00375
0 0.5 1.13118 0.00375
0.0124865 0.5 -1.13118 0.00375053
0.0124865 0.5 1.13118 0.00375065
1.11376 0.5 -0.207935 0.00400904
1.11376 0.5 0.207935 0.00402333
1.0271 0.5 -0.478694 0.00393616
1.0271 0.5 0.478694 0.00395765
0.151149 0.5 -1.125 0.00375672
0.151149 0.5 1.125 0.0037583
1.08112 0.5 -0.354722 0.00397651
1.08112 0.5 0.354722 0.00399739
1.13882 0.5 -0.0340295 0.00403612
1.13882 0.5 0.0340295 0.0040387
0.350249 0.5 -1.0875 0.00376768
0.350249 0.5 1.0875 0.00377174
1.13882 0.5 -0.102088 0.00403236
1.13882 0.5 0.102088 0.00404108
1.10076 0.5 -0.314829 0.00399161
1.10076 0.5 0.314829 0.00401192
0.756813 0.5 -0.8625 0.00382011
0.756814 0.5 0.8625 0.00383205
0.797732 0.5 -0.825 0.00383047
0.797732 0.5 0.825 0.00384399
1.11376 0.5 -0.277247 0.00400266
1.11376 0.5 0.277247 0.00402168
0.835106 0.5 0.7875 0.00385605
0.835106 0.5 -0.7875 0.00384118
0.715434 0.5 -0.9 0.00381115
0.715434 0.5 0.9 0.00382201
0.872064 0.5 -0.75 0.0038535
0.872064 0.5 0.75 0.00387029
1.13882 0.5 0.170147 0.00404044
1.13882 0.5 -0.170147 0.00402745
0.67013 0.5 -0.9375 0.00380247
0.67013 0.5 0.9375 0.00381202
0.905821 0.5 -0.7125 0.00386628
0.905821 0.5 0.7125 0.00388473
1.05695 0.5 0.468994 0.00397514
1.05695 0.5 -0.468994 0.00395085
0.939201 0.5 -0.675 0.00387991
0.939201 0.5 0.675 0.00390012
0.624316 0.5 0.975 0.00380387
0.624316 0.5 -0.975 0.00379515
1.04168 0.5 -0.510414 0.00393898
1.04168 0.5 0.510414 0.00396346
0.969689 0.5 -0.6375 0.00389405
0.96969 0.5 0.6375 0.00391574
0.288069 0.5 -1.125 0.00376384
0.288069 0.5 1.125 0.00376715
1.16179 0.5 5.78241e-19 0.00405333
1.08112 0.5 0.425666 0.00399305
1.08112 0.5 -0.425666 0.00396822
1.13882 0.5 -0.238206 0.00402136
1.13882 0.5 0.238206 0.00403963
1.16179 0.5 0.0669104 0.00405817
1.16179 0.5 -0.0669104 0.00404991
0.574156 0.5 -1.0125 0.00378802
0.574156 0.5 1.0125 0.00379567
0.075776 0.5 -1.1625 0.00375322
0.075776 0.5 1.1625 0.00375393
1.00005 0.5 -0.599447 0.00390947
1.00005 0.5 0.599447 0.00393263
1.10076 0.5 0.384791 0.00400823
1.10076 0.5 -0.384791 0.00398355
1.0271 0.5 -0.55234 0.00392735
1.0271 0.5 0.55234 0.00395194
1.11376 0.5 -0.346559 0.00399508
1.11376 0.5 0.346559 0.00401873
1.16179 0.5 -0.133821 0.0040453
1.16179 0.5 0.133821 0.00405695
0.523432 0.5 -1.05 0.00378218
0.523432 0.5 1.05 0.0037891
1.17463 0.5 -0.0331343 0.00406007
1.17463 0.5 0.0331343 0.004063
1.17463 0.5 -0.0994029 0.00405593
1.17463 0.5 0.0994029 0.00406465
1.16179 0.5 -0.200731 0.0040395
1.16179 0.5 0.200731 0.0040565
1.13882 0.5 -0.306265 0.0040141
1.13882 0.5 0.306265 0.00403751
0.219992 0.5 -1.1625 0.00375992
0.219992 0.5 1.1625 0.00376228
0.467897 0.5 -1.0875 0.00377643
0.467897 0.5 1.0875 0.00378241
1.17463 0.5 0.165672 0.00406525
1.17463 0.5 -0.165672 0.00405061
1.05695 0.5 -0.541147 0.00394174
1.05695 0.5 0.541147 0.00396938
1.18772 0.5 -5.78241e-19 0.00407089
1.11376 0.5 -0.41587 0.00398645
1.11376 0.5 0.41587 0.00401453
1.18772 0.5 -0.065614 0.00406721
1.18772 0.5 0.065614 0.00407342
1.08112 0.5 -0.49661 0.0039592
1.08112 0.5 0.49661 0.00398774
1.10076 0.5 -0.454752 0.00397465
1.10076 0.5 0.454752 0.00400341
1.18534 0.5 0.118202 0.00407453
1.16179 0.5 -0.267642 0.00403253
1.16179 0.5 0.267642 0.00405521
0 0.5 -1.19382 0.00375
0 0.5 1.19382 0.00375
0.0124865 0.5 1.19382 0.00375065
0.0124865 0.5 -1.19382 0.00375053
1.04168 0.5 -0.58333 0.00392977
1.04168 0.5 0.58333 0.00395721
1.18772 0.5 -0.131228 0.00406231
1.17463 0.5 -0.23194 0.00404406
1.17463 0.5 0.23194 0.00406469
0.411736 0.5 -1.125 0.00377183
0.411736 0.5 1.125 0.00377709
1.13882 0.5 -0.374324 0.00400563
1.13882 0.5 0.374324 0.00403407
0 0.5 -1.2 0.00375
0 0.5 1.2 0.00375
0.905821 0.5 0.7875 0.0038802
0.905821 0.5 -0.7875 0.0038596
0.872064 0.5 -0.825 0.0038476
0.872064 0.5 0.825 0.00386635
0.835106 0.5 0.8625 0.00385279
0.835106 0.5 -0.8625 0.00383609
0.939201 0.5 -0.75 0.00387243
0.939201 0.5 0.75 0.00389511
0.797732 0.5 -0.9 0.00382605
0.797732 0.5 0.9 0.00384124
1.0271 0.5 0.625985 0.00394527
1.0271 0.5 -0.625985 0.00391806
0.969689 0.5 0.7125 0.00391014
0.96969 0.5 -0.7125 0.00388577
1.18772 0.5 -0.196842 0.00405619
1.18772 0.5 0.196842 0.00407465
0.756814 0.5 -0.9375 0.00381637
0.756814 0.5 0.9375 0.00382983
0 0.5 1.20618 0.00375
0 0.5 -1.20618 0.00375
1.00005 0.5 -0.674378 0.00390061
1.00005 0.5 0.674378 0.00392643
0.0124865 0.5 1.20618 0.00375063
0.0124865 0.5 -1.20618 0.00375052
1.16179 0.5 -0.334552 0.00402435
1.16179 0.5 0.334552 0.00405259
0.715434 0.5 0.975 0.00382022
0.715434 0.5 -0.975 0.00380799
0.151149 0.5 -1.2 0.00375661
0.151149 0.5 1.2 0.00375816
1.20942 0.5 0.0322645 0.00408868
1.20942 0.5 -0.0322645 0.00408501
1.17463 0.5 -0.298209 0.00403636
1.17463 0.5 0.298209 0.00406283
1.20942 0.5 -0.0967935 0.00408045
1.20942 0.5 0.0967935 0.00409028
0.350249 0.5 -1.1625 0.00376724
0.350249 0.5 1.1625 0.00377156
0.67013 0.5 1.0125 0.00381065
0.67013 0.5 -1.0125 0.00379988
1.11376 0.5 0.485183 0.00400928
1.11376 0.5 -0.485183 0.00397712
1.18772 0.5 0.262456 0.00407353
1.18772 0.5 -0.262456 0.00404888
1.10076 0.5 -0.524714 0.00396515
1.10076 0.5 0.524714 0.00399767
1.20942 0.5 -0.161322 0.00407467
1.20942 0.5 0.161322 0.00409111
1.08112 0.5 -0.567554 0.00394961
1.08112 0.5 0.567554 0.00398146
0.624316 0.5 -1.05 0.00379302
0.624316 0.5 1.05 0.00380277
1.13882 0.5 -0.442383 0.00399633
1.13882 0.5 0.442383 0.00402939
1.05695 0.5 0.6133 0.00396259
1.05695 0.5 -0.6133 0.00393211
1.16179 0.5 -0.401463 0.00401514
1.16179 0.5 0.401463 0.00404865
0.574156 0.5 -1.0875 0.00378635
0.574156 0.5 1.0875 0.00379485
1.17463 0.5 0.364477 0.00405961
1.17463 0.5 -0.364477 0.00402742
1.20942 0.5 -0.225851 0.00406763
1.20942 0.5 0.225851 0.0040908
1.23036 0.5 -1.32995e-17 0.00410311
1.2294 0.5 0.0634819 0.00410584
1.04168 0.5 -0.656246 0.00391999
1.04168 0.5 0.656246 0.00395028
1.23036 0.5 -0.0634819 0.00409889
1.18772 0.5 0.32807 0.00407107
1.18772 0.5 -0.32807 0.00404036
0.288069 0.5 -1.2 0.00376351
0.288069 0.5 1.2 0.00376691
1.23036 0.5 -0.126964 0.00409341
1.23036 0.5 0.126964 0.00410759
0.075776 0.5 -1.2375 0.00375317
0.075776 0.5 1.2375 0.00375383
0.523432 0.5 -1.125 0.00378084
0.523432 0.5 1.125 0.00378849
1.0271 0.5 -0.69963 0.00390821
1.0271 0.5 0.69963 0.00393839
1.24274 0.5 0.0314313 0.00411423
1.24274 0.5 -0.0314313 0.00411051
1.20942 0.5 0.29038 0.00408918
1.20942 0.5 -0.29038 0.00405941
1.11376 0.5 -0.554494 0.00396724
1.11376 0.5 0.554494 0.00400303
1.23036 0.5 -0.190445 0.00408666
1.23036 0.5 0.190445 0.00410801
1.24274 0.5 -0.0942942 0.00410552
1.24274 0.5 0.0942942 0.00411651
1.13882 0.5 0.510442 0.0040237
1.13882 0.5 -0.510442 0.00398648
0.969689 0.5 -0.7875 0.00387744
0.969689 0.5 0.7875 0.00390451
1.00005 0.5 -0.749309 0.0038915
1.00005 0.5 0.749309 0.00392019
0.939201 0.5 -0.825 0.0038649
0.939201 0.5 0.825 0.00388986
0.90582 0.5 0.8625 0.00387543
0.90582 0.5 -0.8625 0.00385287
1.17463 0.5 -0.430746 0.00401767
1.17463 0.5 0.430746 0.00405506
1.10076 0.5 -0.594676 0.00395513
1.10076 0.5 0.594676 0.00399089
1.18772 0.5 -0.393684 0.00403083
1.18772 0.5 0.393684 0.00406725
1.24274 0.5 -0.157157 0.00409925
1.24274 0.5 0.157157 0.00411759
1.16179 0.5 -0.468373 0.0040053
1.16179 0.5 0.468373 0.00404352
0.467897 0.5 -1.1625 0.00377545
0.467897 0.5 1.1625 0.00378201
0.872064 0.5 -0.9 0.00384167
0.872064 0.5 0.9 0.00386228
1.25401 0.5 2.08167e-17 0.00412092
0.835106 0.5 0.9375 0.00384943
0.835106 0.5 -0.9375 0.00383096
1.25401 0.5 -0.0622994 0.00411641
1.25401 0.5 0.0622994 0.00412433
1.08112 0.5 -0.638498 0.00393939
1.08112 0.5 0.638498 0.00397435
1.23036 0.5 -0.253927 0.00407866
1.23036 0.5 0.253927 0.00410721
0.219992 0.5 1.2375 0.00376203
0.219992 0.5 -1.2375 0.0037597
1.25309 0.5 0.121964 0.00412584
1.05695 0.5 0.685452 0.00395535
1.05695 0.5 -0.685452 0.00392179
0.797732 0.5 0.975 0.0038384
0.797732 0.5 -0.975 0.0038216
1.25401 0.5 -0.124599 0.00411061
1.20942 0.5 -0.354909 0.00404997
1.20942 0.5 0.354909 0.00408617
1.24274 0.5 -0.220019 0.00409168
1.24274 0.5 0.220019 0.00411752
0.756814 0.5 -1.0125 0.00381258
0.756813 0.5 1.0125 0.00382752
1.25401 0.5 -0.186898 0.00410349
1.25401 0.5 0.186898 0.00412643
0.411736 0.5 -1.2 0.00377107
0.411736 0.5 1.2 0.00377669
0 0.5 -1.26882 0.00375
0 0.5 1.26882 0.00375
0.0124865 0.5 1.26882 0.00375063
0.0124865 0.5 -1.26882 0.00375052
0.715434 0.5 -1.05 0.00380477
0.715434 0.5 1.05 0.00381829
1.23036 0.5 -0.31741 0.00406947
1.23036 0.5 0.31741 0.00410505
1.04168 0.5 -0.729162 0.00390971
1.04168 0.5 0.729162 0.00394312
1.18772 0.5 -0.459298 0.00402069
1.18772 0.5 0.459298 0.00406219
1.24274 0.5 -0.282882 0.00408291
1.24274 0.5 0.282882 0.00411612
0 0.5 -1.275 0.00375
0 0.5 1.275 0.00375
1.27472 0.5 -0.0306319 0.00413677
1.27472 0.5 0.0306319 0.00414092
1.17463 0.5 0.497015 0.00404941
1.17463 0.5 -0.497015 0.00400746
1.11376 0.5 -0.623806 0.00395675
1.11376 0.5 0.623806 0.0039959
1.13882 0.5 -0.578501 0.0039761
1.13882 0.5 0.578501 0.00401699
0.67013 0.5 -1.0875 0.00379723
0.67013 0.5 1.0875 0.00380913
1.27472 0.5 -0.0918959 0.00413131
1.27472 0.5 0.0918959 0.00414037
1.25401 0.5 -0.249197 0.00409512
1.25401 0.5 0.249197 0.00412577
1.16179 0.5 -0.535284 0.00399494
1.16179 0.5 0.535284 0.00403734
1.20942 0.5 -0.419438 0.00403974
1.20942 0.5 0.419438 0.00408178
0 0.5 -1.28118 0.00375
0 0.5 1.28118 0.00375
0.0124865 0.5 1.28118 0.00375061
0.0124865 0.5 -1.28118 0.00375051
1.27472 0.5 0.15316 0.00414491