# kMean  POINT_DATA 91129
# x  y  z  kMean
0 0 0 0.00551321
0 0.00368111 0 0.00375
0 0.00749587 0 0.00375
0 0.0114491 0 0.00375
0 0.0155459 0 0.00375
0 0.0197915 0 0.00375
0 0.0241911 0 0.00375
0 0.0287506 0 0.00375
0 0.0334755 0 0.00375
0 0.038372 0 0.00375
0 0.0434463 0 0.00375
0 0.0487048 0 0.00375
0 0.0541543 0 0.00375
0 0.0598016 0 0.00375
0 0.0656539 0 0.00375
0 0.0717187 0 0.00375
0.075776 0.00184055 0 0.00948376
0.075776 0.00558849 0 0.00333928
0.075776 0.00947248 -3.46945e-18 0.00303354
0.075776 0.0134975 -3.46945e-18 0.00341327
0.075776 0.0176687 3.46945e-18 0.00358063
0 0.0780037 0 0.00375
0.075776 0.0219913 3.46945e-18 0.00364626
0.075776 0.0264709 3.46945e-18 0.00367965
0.075776 0.031113 -3.46945e-18 0.00369886
0.075776 0.0359237 -3.46945e-18 0.00371103
0 0.0845169 0 0.00375
0.075776 0.0409092 0 0.00371931
0.075776 0.0460755 -3.46945e-18 0.00372526
0 0.0912666 0 0.00375
0.075776 0.0514296 -3.46945e-18 0.00372968
0.075776 0.0569779 0 0.00373308
0 0.0982613 0 0.00375
0.075776 0.0627278 0 0.00373575
0.075776 0.0686863 0 0.00373794
0 0.10551 0 0.00375
0.075776 0.0748612 3.46945e-18 0.00373982
0.075776 0.0812603 -3.46945e-18 0.00374143
0 0.113022 0 0.00375
0.075776 0.0878918 3.46945e-18 0.00374281
0 0.120806 0 0.00375
0.075776 0.0947639 3.46945e-18 0.00374397
0.075776 0.101886 -3.46945e-18 0.00374495
0 0.128874 0 0.00375
0.075776 0.109266 3.46945e-18 0.00374577
0 0.137234 0 0.00375
0.075776 0.116914 3.46945e-18 0.00374647
0 0.145897 0 0.00375
0.075776 0.12484 0 0.00374705
0.151552 0 0 0.0058814
0.151552 0.00368111 0 0.0041557
0.151552 0.00749587 0 0.00256332
0.151552 0.0114491 0 0.00294326
0.151552 0.0155459 0 0.0033053
0.151552 0.0197915 0 0.00347524
0.075776 0.133054 0 0.00374755
0.151552 0.0241911 0 0.00356153
0.151552 0.0287506 0 0.00361367
0 0.154876 0 0.00375
0.151552 0.0334755 0 0.00364751
0.151552 0.038372 0 0.00367059
0.151552 0.0434463 0 0.00368698
0.151552 0.0487048 0 0.00369905
0.075776 0.141566 0 0.00374798
0.151552 0.0541543 0 0.0037082
0.151552 0.0598016 0 0.00371532
0 0.16418 0 0.00375
0.151552 0.0656539 0 0.00372099
0.151552 0.0717187 0 0.00372561
0.075776 0.150387 0 0.00374837
0.151552 0.0780037 0 0.00372944
0.151552 0.0845169 0 0.00373263
0 0.173822 0 0.00375
0.075776 0.159528 0 0.00374874
0.151552 0.0912666 0 0.00373531
0.151552 0.0982613 0 0.00373757
0 0.183814 0 0.00375
0.151552 0.10551 0 0.00373948
0.075776 0.169001 3.46945e-18 0.00374909
0.151552 0.113022 0 0.0037411
0.151552 0.120806 0 0.00374249
0 0.194169 0 0.00375
0.075776 0.178818 3.46945e-18 0.00374943
0.151552 0.128874 0 0.00374368
0.075776 0.188992 3.46945e-18 0.00374978
0.151552 0.137234 0 0.00374471
0 0.2049 0 0.00375
0.151552 0.145897 0 0.00374561
0.075776 0.199535 0 0.00375012
0 0.21602 0 0.00375
0.151552 0.154876 0 0.00374642
0.219992 0.00184055 0 0.00255628
0.219992 0.00558849 0 0.00159047
0.219992 0.00947248 -3.46945e-18 0.00238585
0.219992 0.0134975 3.46945e-18 0.00298348
0.219992 0.0176687 0 0.00327331
0.219992 0.0219913 0 0.003422
0.219993 0.0264709 -3.46945e-18 0.0035138
0.219992 0.031113 -3.46945e-18 0.00357399
0.219992 0.0359238 3.46945e-18 0.00361499
0.151552 0.16418 0 0.00374715
0.075776 0.21046 0 0.00375046
0.219992 0.0409092 3.46945e-18 0.00364387
0.219992 0.0460755 0 0.00366491
0.219993 0.0514296 -3.46945e-18 0.0036807
0.219992 0.0569779 0 0.00369288
0 0.227544 0 0.00375
0.219992 0.0627277 3.46945e-18 0.00370249
0.219992 0.0686863 0 0.00371021
0.151552 0.173822 0 0.00374781
0.219992 0.0748612 3.46945e-18 0.00371651
0.075776 0.221782 0 0.00375079
0.219992 0.0812603 3.46945e-18 0.00372171
0.219992 0.0878917 -3.46945e-18 0.00372604
0.151552 0.183814 0 0.00374842
7.47806e-17 0.239487 0 0.00375
0.219992 0.0947639 3.46945e-18 0.00372967
0.219993 0.101886 3.46945e-18 0.00373274
0.075776 0.233516 0 0.0037511
0.219993 0.109266 0 0.00373535
0.151552 0.194169 0 0.00374899
0.219993 0.116914 0 0.00373758
0 0.251863 0 0.00375
0.219993 0.12484 0 0.0037395
0.151552 0.2049 0 0.00374954
0.075776 0.245675 0 0.00375136
0.219992 0.133054 3.46945e-18 0.00374116
0.219992 0.141565 0 0.00374261
0.151552 0.21602 0 0.00375005
0 0.264688 0 0.00375
0.219992 0.150387 3.46945e-18 0.00374389
0.075776 0.258275 3.46945e-18 0.00375157
0.219992 0.159528 -3.46945e-18 0.00374502
0.151552 0.227544 0 0.00375053
0.219992 0.169001 3.46945e-18 0.00374602
0 0.27798 0 0.00375
0.075776 0.271334 3.46945e-18 0.0037517
0.151552 0.239487 3.70071e-18 0.00375096
0.219992 0.178818 3.46945e-18 0.00374692
0.288433 0 0 0.00172387
0.288433 0.00368111 0 0.00149805
0.288433 0.00749587 0 0.00179733
0.288433 0.0114491 0 0.00263544
0.288433 0.0155459 3.70071e-18 0.00309288
0.288433 0.0197915 0 0.00330258
0.288433 0.0241911 3.70071e-18 0.00341095
0.288433 0.0287506 0 0.0034866
0.219992 0.188991 0 0.00374774
0.288433 0.0334755 0 0.00354347
0.288433 0.038372 0 0.00358608
0.288433 0.0434463 0 0.00361818
7.47806e-17 0.291753 0 0.00375
0.288433 0.0487048 0 0.00364271
0.288433 0.0541543 0 0.00366178
0.151552 0.251863 0 0.00375135
0.288433 0.0598016 3.70071e-18 0.00367686
0.075776 0.284866 0 0.00375177
0.288433 0.0656539 3.70071e-18 0.00368895
0.219992 0.199534 0 0.00374849
0.288433 0.0717187 0 0.00369879
0.288433 0.0780037 0 0.00370686
0.288433 0.0845169 0 0.00371354
0.288433 0.0912666 0 0.00371912
0.219992 0.21046 -3.46945e-18 0.00374919
0.288433 0.0982613 0 0.0037239
0.151552 0.264688 3.70071e-18 0.00375168
0 0.306027 0 0.00375
0.288433 0.10551 0 0.00372811
0.075776 0.29889 3.46945e-18 0.00375176
0.288433 0.113022 0 0.00373181
0.219993 0.221782 0 0.00374984
0.288433 0.120806 0 0.00373506
0.288433 0.128874 0 0.00373788
0.151552 0.27798 0 0.00375195
0.288433 0.137234 0 0.00374037
0 0.320819 0 0.00375
0.219992 0.233515 -3.46945e-18 0.00375044
0.075776 0.313423 -3.46945e-18 0.00375171
0.288433 0.145897 0 0.00374255
0.288433 0.154876 0 0.00374446
0.151552 0.291753 0 0.00375217
0.219993 0.245675 0 0.00375099
0.288433 0.16418 0 0.00374613
0 0.336148 0 0.00375
0.288433 0.173822 0 0.00374758
0.075776 0.328484 -3.46945e-18 0.00375163
0.219993 0.258275 -3.46945e-18 0.00375149
0.151552 0.306027 0 0.00375233
0.288433 0.183814 0 0.00374884
0.288433 0.194169 0 0.00374993
0.219992 0.271334 3.46945e-18 0.00375195
0.350249 0.00184056 -3.46945e-18 0.000952688
0.350249 0.00558849 0 0.000977315
0.350249 0.00947248 3.46945e-18 0.00226377
0.350249 0.0134975 0 0.00291589
0.350249 0.0176687 0 0.00320405
0.350249 0.0219913 0 0.00331759
0.350249 0.0264708 3.46945e-18 0.00339876
0.350249 0.031113 0 0.00346827
0 0.352034 0 0.00375
0.350249 0.0359238 0 0.00352413
0.075776 0.344091 0 0.00375154
0.350249 0.0409091 0 0.0035677
0.350249 0.0460756 3.46945e-18 0.00360156
0.288433 0.2049 0 0.00375089
0.350249 0.0514296 0 0.0036281
0.151552 0.320819 0 0.00375245
0.350249 0.0569779 0 0.00364913
0.350249 0.0627277 3.46945e-18 0.00366599
0.350249 0.0686863 3.46945e-18 0.00367967
0.350249 0.0748612 3.46945e-18 0.00369089
0.350249 0.0812603 0 0.00370014
0.219992 0.284867 0 0.00375236
0.288433 0.21602 0 0.00375174
0.350249 0.0878917 0 0.00370779
0.350249 0.094764 0 0.00371425
0.350249 0.101886 0 0.00372
0.350249 0.109266 0 0.0037252
0.288433 0.227544 0 0.00375249
0.075776 0.360265 3.46945e-18 0.00375151
0 0.368496 0 0.00375
0.151552 0.336148 0 0.00375254
0.350249 0.116914 3.46945e-18 0.00372981
0.219992 0.29889 0 0.00375272
0.370854 0.0241911 1.54074e-33 0.00337082
0.350249 0.12484 0 0.00373384
0.350249 0.133054 0 0.00373739
0.288433 0.239487 -9.25154e-19 0.00375316
0.350249 0.141566 3.46945e-18 0.00374052
0.350249 0.150387 3.46945e-18 0.00374327
0.288433 0.251863 0 0.00375377
0.219992 0.313423 0 0.00375303
0.151552 0.352034 0 0.00375265
0.075776 0.377027 0 0.00375156
0.350249 0.159528 0 0.00374566
0 0.385557 0 0.00375
0.350249 0.169001 0 0.00374773
0.288433 0.264688 0 0.00375433
0.350249 0.178818 0 0.00374949
0.219992 0.328484 0 0.0037533
0.350249 0.188992 0 0.00375098
0.151552 0.368496 0 0.0037528
0.288433 0.27798 3.70071e-18 0.00375486
0.075776 0.394397 0 0.00375166
0.350249 0.199535 0 0.00375225
7.47806e-17 0.403236 0 0.00375
0.219992 0.344091 0 0.00375356
0.350249 0.21046 -3.46945e-18 0.00375333
0.288433 0.291753 0 0.00375536
0.412065 9.08189e-19 3.08149e-33 0.000794298
0.412065 0.00368111 -2.31298e-18 0.000865502
0.412065 0.00749587 -2.31298e-18 0.00165049
0.412065 0.0114491 -2.31298e-18 0.00269202
0.412065 0.0155459 -2.31298e-18 0.00313257
0.412065 0.0197915 0 0.00328531
0.412065 0.0241911 -3.08149e-33 0.00335075
0.412065 0.0264709 0 0.00337787
0.412065 0.0287506 -2.31298e-18 0.00340499
0.412065 0.0334755 -2.31298e-18 0.00346099
0.412065 0.038372 -2.31298e-18 0.00351152
0.151552 0.385557 0 0.003753
0.412065 0.0434463 0 0.00355379
0.350249 0.221782 0 0.00375426
0.412065 0.0487048 0 0.00358818
0.412065 0.0541543 -3.08149e-33 0.003616
0.412065 0.0569779 0 0.00362727
0.412065 0.0598016 -2.31298e-18 0.00363855
0.412065 0.0656539 -2.31298e-18 0.00365693
0.412065 0.0717187 -2.31298e-18 0.00367198
0.075776 0.412396 -3.46945e-18 0.00375174
0.412065 0.0780037 -2.31298e-18 0.00368437
0.288433 0.306027 0 0.00375584
0.412065 0.0845169 -2.31298e-18 0.00369467
0.350249 0.233516 3.46945e-18 0.00375507
0 0.421557 0 0.00375
0.412065 0.0912666 -2.31298e-18 0.0037035
0.219992 0.360265 3.46945e-18 0.00375382
0.412065 0.0982613 0 0.00371135
0.412065 0.10551 0 0.00371847
0.412065 0.113022 -2.31298e-18 0.00372489
0.350249 0.245675 0 0.00375579
0.412065 0.120806 0 0.00373061
0.151552 0.403236 0 0.00375323
0.288433 0.320819 0 0.00375629
0.412065 0.128874 -2.31298e-18 0.00373568
0.412065 0.137234 0 0.00374014
0.350249 0.258275 -3.46945e-18 0.00375645
0.219992 0.377026 0 0.00375412
0.412065 0.145897 -2.31298e-18 0.00374406
0.075776 0.431051 0 0.0037518
0.412065 0.154876 -2.31298e-18 0.00374746
0 0.440544 0 0.00375
0.288433 0.336148 0 0.00375673
0.350249 0.271334 0 0.00375706
0.412065 0.16418 -2.31298e-18 0.00375039
0.412065 0.173822 -2.31298e-18 0.00375291
0.151552 0.421557 0 0.00375345
0.412065 0.183814 -2.31298e-18 0.00375505
0.350249 0.284867 3.46945e-18 0.00375767
0.219992 0.394397 0 0.00375446
0.288433 0.352034 3.70071e-18 0.00375716
0.412065 0.194169 0 0.00375687
0.075776 0.450382 0 0.00375184
0.412065 0.2049 -2.31298e-18 0.0037584
0 0.46022 0 0.00375
0.350249 0.29889 3.46945e-18 0.00375828
0.412065 0.21602 0 0.00375969
0.151552 0.440544 0 0.00375366
0.219993 0.412396 3.46945e-18 0.00375482
0.467897 0.00184056 -3.46945e-18 0.000646959
0.467897 0.00558849 0 0.000898925
0.288433 0.368496 0 0.00375761
0.467897 0.00947248 0 0.00245781
0.467897 0.0134975 0 0.00311638
0.467897 0.0176687 3.46945e-18 0.00328386
0.467897 0.0219913 -3.46945e-18 0.00333231
0.467897 0.0264709 3.46945e-18 0.00335538
0.467897 0.0311131 3.46945e-18 0.00340154
0.467897 0.0359238 -3.46945e-18 0.00345491
0.467897 0.038372 0 0.00348409
0.467897 0.0409092 3.46945e-18 0.00350414
0.350249 0.313423 0 0.00375889
0.467897 0.0460755 0 0.00354604
0.467897 0.0514296 3.46945e-18 0.00358072
0.412065 0.227544 -2.31298e-18 0.00376078
0.467897 0.0569779 0 0.00360919
0.467897 0.0627277 -3.46945e-18 0.00363254
0.467897 0.0686863 3.46945e-18 0.00365172
0.467897 0.0748612 0 0.0036675
0.467897 0.0812603 0 0.0036805
0.467897 0.0878918 3.46945e-18 0.00369154
0.075776 0.470415 3.46945e-18 0.00375186
0.412065 0.239487 -2.31298e-18 0.00376172
0.467897 0.0947639 -3.46945e-18 0.00370144
0.467897 0.101886 3.46945e-18 0.00371051
0.350249 0.328483 0 0.00375949
0.467897 0.109266 0 0.00371875
0 0.48061 0 0.00375
0.288433 0.385557 0 0.00375807
0.467897 0.116914 0 0.00372617
0.412065 0.251863 -2.31298e-18 0.00376253
0.219992 0.431051 0 0.00375519
0.467897 0.12484 0 0.0037328
0.151552 0.46022 0 0.00375385
0.467897 0.133054 3.46945e-18 0.00373866
0.467897 0.141566 3.46945e-18 0.00374382
0.412065 0.264688 -2.31298e-18 0.00376326
0.350249 0.344091 -3.46945e-18 0.00376009
0.467897 0.150387 3.46945e-18 0.00374831
0.467897 0.154876 0 0.00375178
0.467897 0.159528 3.46945e-18 0.00375219
0.288433 0.403236 0 0.00375855
0.075776 0.491175 0 0.00375188
0.412065 0.27798 -2.31298e-18 0.00376394
0.467897 0.169001 0 0.00375549
0.467897 0.178818 3.46945e-18 0.00375833
0.219992 0.450382 0 0.00375553
6.73026e-17 0.501741 3.70071e-18 0.00375
0.350249 0.360265 0 0.00376068
0.151552 0.48061 0 0.00375402
0.467897 0.188991 0 0.00376075
0.412065 0.291753 0 0.00376459
0.467897 0.199535 0 0.00376278
0.288433 0.421557 0 0.00375905
0.467897 0.21046 0 0.00376447
0.412065 0.306027 0 0.00376524
0.350249 0.377027 0 0.00376127
0.467897 0.221782 3.46945e-18 0.00376588
0.075776 0.51269 0 0.00375191
0.219993 0.470415 3.46945e-18 0.00375585
0.467897 0.227544 0 0.00376829
0.412065 0.320819 -2.31298e-18 0.00376587
0.467897 0.233515 0 0.00376706
6.73026e-17 0.523639 3.70071e-18 0.00375
0.523729 0 0 0.000563846
0.523729 0.00368111 0 0.000719138
0.523729 0.00749587 -2.31298e-18 0.00173559
0.523729 0.0114491 0 0.00295389
0.523729 0.0155459 0 0.00335725
0.523729 0.0197915 -2.31298e-18 0.00339658
0.151552 0.501741 0 0.00375418
0.523729 0.0241911 0 0.00338069
0.523729 0.0287506 0 0.0033814
0.523729 0.0334755 0 0.00341223
0.523729 0.038372 -3.08149e-33 0.00345667
0.523729 0.0434463 0 0.00350144
0.523729 0.0487048 0 0.00354145
0.523729 0.0541543 0 0.00357563
0.288433 0.440544 0 0.00375954
0.523729 0.0598016 0 0.00360431
0.350249 0.394397 -3.46945e-18 0.00376187
0.523729 0.0656539 0 0.0036282
0.467897 0.245675 0 0.00376806
0.523729 0.0717187 0 0.00364802
0.523729 0.0780037 0 0.00366449
0.523729 0.0845169 0 0.00367853
0.523729 0.0912666 0 0.00369103
0.412065 0.336148 0 0.00376651
0.523729 0.0982613 0 0.00370246
0.523729 0.10551 -2.31298e-18 0.00371288
0.467897 0.258275 -3.46945e-18 0.00376893
0.523729 0.113022 0 0.00372233
0.523729 0.120806 -3.08149e-33 0.00373082
0.219993 0.491176 0 0.00375615
0.523729 0.12484 0 0.00373461
0.523729 0.128874 -2.31298e-18 0.0037384
0.075776 0.534986 0 0.00375194
0.467897 0.271334 3.46945e-18 0.0037697
0.350249 0.412396 -3.46945e-18 0.00376249
0.523729 0.137234 0 0.0037451
0.412065 0.352034 -2.31298e-18 0.00376714
0.288433 0.46022 0 0.00376001
0.523729 0.145897 0 0.00375098
0.151552 0.523639 0 0.00375434
0.523729 0.154876 -3.08149e-33 0.0037561
0 0.546332 0 0.00375
0.523729 0.159528 0 0.0037583
0.467897 0.284867 -3.46945e-18 0.00377042
0.523729 0.16418 -2.31298e-18 0.0037605
0.523729 0.173822 0 0.00376426
0.412065 0.368496 0 0.00376777
0.523729 0.183814 0 0.00376746
0.467897 0.29889 0 0.0037711
0.350249 0.431051 -3.46945e-18 0.00376311
0.219992 0.51269 0 0.00375643
0.523729 0.194169 0 0.00377016
0.288433 0.48061 0 0.00376045
0.523729 0.2049 0 0.0037724
0.467897 0.313423 3.46945e-18 0.00377176
0.075776 0.558091 0 0.00375199
0.412065 0.385557 0 0.00376841
0.523729 0.21602 -3.08149e-33 0.00377427
0.151552 0.546332 0 0.0037545
0 0.569849 0 0.00375
0.350249 0.450382 3.46945e-18 0.00376372
0.523729 0.227544 -3.08149e-33 0.0037758
0.467897 0.328483 0 0.00377242
0.523729 0.231525 1.54074e-33 0.00377623
0.574156 0.00184056 0 0.000486187
0.574156 0.00558849 0 0.000851548
0.574157 0.00947248 0 0.00272661
0.574156 0.0134975 -3.46945e-18 0.00349292
0.574156 0.0176687 -3.46945e-18 0.00351523
0.574156 0.0219913 0 0.00344332
0.574156 0.0264708 -3.46945e-18 0.00338692
0.574156 0.031113 0 0.00338136
0.574156 0.0359238 -3.46945e-18 0.00341321
0.574157 0.0409092 0 0.0034574
0.523729 0.239487 3.70071e-18 0.00377707
0.574156 0.0460755 -3.46945e-18 0.00350129
0.574156 0.0514295 0 0.00354063
0.412065 0.403236 0 0.00376906
0.574157 0.0569779 0 0.00357451
0.574156 0.0627277 0 0.00360317
0.574156 0.0686863 0 0.0036272
0.219992 0.534986 0 0.0037567
0.288433 0.501741 0 0.00376088
0.574156 0.0748612 3.46945e-18 0.00364718
0.574156 0.0812603 0 0.00366404
0.467897 0.344091 0 0.00377309
0.574156 0.0878917 3.46945e-18 0.00367903
0.523729 0.251863 0 0.00377814
0.574157 0.0947639 0 0.00369284
0.574156 0.101886 0 0.00370549
0.574156 0.109266 0 0.003717
0.574156 0.116914 0 0.0037274
0.412065 0.416977 -6.16298e-33 0.00376956
0.350249 0.470415 0 0.00376431
0.523729 0.264688 0 0.00377904
0.075776 0.582034 0 0.00375204
0.574156 0.12484 0 0.00373673
0.574156 0.133054 3.46945e-18 0.00374504
0.412065 0.421557 -2.31298e-18 0.00376973
0.151552 0.569849 0 0.00375466
0.467897 0.360265 -3.46945e-18 0.00377375
0.574157 0.141566 -3.46945e-18 0.00375237
0.523729 0.27798 0 0.00377983
0.574156 0.150386 3.46945e-18 0.00375879
0 0.594219 0 0.00375
0.574156 0.159528 -3.46945e-18 0.00376434
0.574156 0.16418 0 0.00376814
0.288433 0.523639 1.2326e-32 0.00376128
0.574157 0.169001 0 0.0037691
0.523729 0.291753 0 0.00378055
0.219993 0.558091 3.46945e-18 0.00375697
0.467897 0.377026 0 0.00377443
0.574156 0.178818 3.46945e-18 0.00377316
0.412065 0.440544 -2.31298e-18 0.00377041
0.350249 0.491175 0 0.00376487
0.574156 0.188992 3.46945e-18 0.00377657
0.523729 0.306027 -3.08149e-33 0.00378122
0.574157 0.199535 0 0.00377943
0.574157 0.21046 0 0.00378179
0.075776 0.606847 0 0.00375209
0.467897 0.394397 0 0.00377512
0.151552 0.594219 0 0.00375482
0.523729 0.320819 0 0.00378186
0.574157 0.221782 -3.46945e-18 0.00378373
0.412065 0.46022 3.08149e-33 0.00377107
0.288433 0.546332 0 0.00376166
0 0.619475 0 0.00375
0.574156 0.233515 3.46945e-18 0.00378531
0.350249 0.51269 3.46945e-18 0.0037654
0.219992 0.582034 3.46945e-18 0.00375724
0.523729 0.336148 0 0.00378249
0.467897 0.412396 0 0.00377583
0.574156 0.245675 0 0.00378661
0.624584 0 0 0.000428425
0.624584 0.00368111 0 0.000634119
0.624584 0.00749587 0 0.00185118
0.624584 0.0114491 0 0.0032988
0.624584 0.0155459 0 0.00372436
0.624584 0.0197915 0 0.0036329
0.624584 0.0241911 -2.31298e-18 0.00349637
0.624584 0.0287506 0 0.00341903
0.624584 0.0334755 0 0.0034031
0.624584 0.038372 0 0.0034263
0.624584 0.0434463 -2.31298e-18 0.00346454
0.624584 0.0487048 0 0.00350506
0.624584 0.0541543 0 0.00354266
0.624584 0.0598016 0 0.00357573
0.624584 0.0656539 0 0.00360409
0.624584 0.0717187 0 0.00362804
0.624584 0.0780037 0 0.00364834
0.574157 0.258276 3.46945e-18 0.00378768
0.624584 0.0845169 0 0.00366626
0.523729 0.352034 0 0.00378313
0.624584 0.0912666 0 0.00368268
0.624584 0.0982613 0 0.00369783
0.412065 0.48061 3.08149e-33 0.00377171
0.624584 0.10551 0 0.00371168
0.624584 0.113022 -2.31298e-18 0.00372427
0.574156 0.271334 0 0.00378858
0.624584 0.120806 0 0.00373564
0.467897 0.431051 0 0.00377655
0.075776 0.632561 -3.46945e-18 0.00375215
0.624584 0.128874 0 0.00374583
0.151552 0.619475 0 0.00375499
0.288433 0.569849 0 0.00376203
0.350249 0.534985 0 0.0037659
0.624584 0.137234 -2.31298e-18 0.00375487
0.523729 0.368496 0 0.00378377
0.574156 0.284866 -3.46945e-18 0.00378936
0.624584 0.145897 0 0.00376284
0.467897 0.440544 0 0.00377847
0.624584 0.154876 0 0.00376979
0.219992 0.606847 -3.46945e-18 0.00375751
0 0.645647 0 0.00375
0.624584 0.16418 -3.08149e-33 0.00377579
0.574156 0.29889 -3.46945e-18 0.00379005
0.624584 0.173822 0 0.00378093
0.412065 0.501741 1.54074e-33 0.00377232
0.467897 0.450382 -3.46945e-18 0.00377728
0.523729 0.385557 0 0.00378443
0.624584 0.183814 0 0.00378528
0.624584 0.194169 0 0.00378892
0.574156 0.313423 0 0.00379069
0.624584 0.2049 0 0.00379194
0.350249 0.558091 3.46945e-18 0.00376637
0.288433 0.594219 0 0.00376238
0.624584 0.21602 0 0.00379442
0.523729 0.403236 0 0.00378511
0.574156 0.328483 -3.46945e-18 0.0037913
0.151552 0.645647 0 0.00375515
0.467897 0.470415 3.46945e-18 0.003778
0.075776 0.659208 0 0.00375222
0.624584 0.227544 0 0.00379644
0.412065 0.523639 0 0.00377289
0.523729 0.41545 3.08149e-33 0.00378558
0.624584 0.239487 3.70071e-18 0.00379807
0.574156 0.344091 0 0.0037919
0.219992 0.632561 0 0.00375777
0.67013 0.00184055 0 0.000374197
0.67013 0.00558849 0 0.000828807
0.67013 0.00947248 0 0.00299022
0.67013 0.0134975 0 0.00396239
0.67013 0.0176687 -3.46945e-18 0.00389996
0.67013 0.0219913 0 0.00365431
0.67013 0.0264708 3.46945e-18 0.00349097
0.67013 0.0311131 0 0.0034126
0.67013 0.0359237 0 0.00340451
0.67013 0.0409092 -3.46945e-18 0.00343118
0.67013 0.0460755 0 0.0034701
0.67013 0.0514296 3.46945e-18 0.00351017
0.523729 0.421557 -2.31298e-18 0.00378581
0.67013 0.056978 0 0.00354714
0 0.67277 0 0.00375
0.67013 0.0627277 0 0.0035797
0.624584 0.251863 0 0.00379939
0.67013 0.0686863 0 0.00360766
0.67013 0.0748612 3.46945e-18 0.00363123
0.67013 0.0812603 0 0.0036518
0.67013 0.0878917 0 0.00367081
0.67013 0.0947639 3.46945e-18 0.00368846
0.574156 0.360265 0 0.00379251
0.67013 0.101886 0 0.00370469
0.523729 0.431051 0 0.00378617
0.624584 0.264688 0 0.00380046
0.467897 0.491175 0 0.00377869
0.67013 0.109266 3.46945e-18 0.0037195
0.350249 0.582034 0 0.00376682
0.67013 0.116914 0 0.00373294
0.67013 0.12484 0 0.00374505
0.67013 0.133054 0 0.00375587
0.288433 0.619475 0 0.00376272
0.624584 0.27798 -3.08149e-33 0.00380133
0.412065 0.546332 1.54074e-33 0.00377343
0.523729 0.440544 -3.08149e-33 0.00378653
0.67013 0.141566 3.46945e-18 0.00376545
0.685312 0.0241911 -7.70372e-34 0.00363598
0.685312 0.0434463 -7.70372e-34 0.00345315
0.67013 0.150387 0 0.00377386
0.574156 0.377026 -3.46945e-18 0.00379314
0.67013 0.159528 0 0.00378117
0.624584 0.291753 0 0.00380207
0.151552 0.67277 0 0.00375531
0.075776 0.686823 0 0.00375229
0.67013 0.169001 0 0.00378745
0.67013 0.178818 0 0.0037928
0.467897 0.51269 0 0.00377934
0.685312 0.113022 -7.70372e-34 0.00372821
0.219992 0.659208 0 0.00375802
0.624584 0.306027 0 0.00380272
0.67013 0.188991 0 0.0037973
0.574156 0.394397 3.46945e-18 0.00379379
0.523729 0.46022 0 0.00378725
0.685312 0.137234 -7.70372e-34 0.0037641
0.67013 0.199535 -3.46945e-18 0.00380105
0.350249 0.606847 0 0.00376725
0 0.700877 0 0.00375
0.624584 0.320819 0 0.0038033
0.67013 0.21046 0 0.00380413
0.412065 0.569849 -2.31298e-18 0.00377393
0.67013 0.221782 -3.46945e-18 0.00380663
0.574157 0.412396 0 0.00379447
0.288433 0.645647 0 0.00376305
0.624584 0.336148 -3.08149e-33 0.00380386
0.67013 0.233515 3.46945e-18 0.00380864
0.467897 0.534986 0 0.00377995
0.523729 0.48061 0 0.00378795
0.624584 0.344091 0 0.00380413
0.67013 0.245675 0 0.00381025
0.715676 4.54095e-19 0 0.000330527
0.715676 0.00368111 0 0.000577177
0.715676 0.00749587 0 0.001969
0.715676 0.0114491 0 0.00366315
0.715676 0.0155459 0 0.00418223
0.715676 0.0197915 0 0.00398722
0.715676 0.0241911 0 0.00370578
0.715676 0.0287506 0 0.00352558
0.715676 0.0334755 0 0.00344133
0.715676 0.038372 0 0.00342638
0.624584 0.352034 -2.31298e-18 0.0038044
0.715676 0.0434463 0 0.00344746
0.151552 0.700877 0 0.00375547
0.715676 0.0487048 0 0.00348193
0.715676 0.0541543 0 0.00351915
0.574156 0.43105 0 0.00379516
0.715676 0.0598016 0 0.00355434
0.67013 0.258275 0 0.00381152
0.715676 0.0656539 0 0.00358575
0.715676 0.0717187 0 0.00361296
0.075776 0.715441 0 0.00375236
0.715676 0.0780037 0 0.00363668
0.715676 0.0845169 0 0.00365828
0.219992 0.686824 0 0.00375827
0.715676 0.0912666 0 0.00367847
0.715676 0.0982613 0 0.00369721
0.67013 0.271334 -3.46945e-18 0.00381254
0.350249 0.632561 -3.46945e-18 0.00376765
0.412065 0.594219 3.08149e-33 0.0037744
0.715676 0.10551 0 0.00371445
0.715676 0.113022 0 0.00373019
0.624584 0.368496 0 0.00380496
0.523729 0.501741 0 0.00378862
0.715676 0.120806 0 0.00374445
0.715676 0.128874 0 0.00375728
0.67013 0.284867 0 0.00381336
0.467897 0.558091 3.46945e-18 0.00378051
0.715676 0.137234 0 0.00376872
0.574156 0.450382 0 0.00379588
0 0.730005 0 0.00375
0.715676 0.145897 0 0.00377882
0.288433 0.67277 0 0.00376336
0.715676 0.154876 0 0.00378767
0.67013 0.29889 0 0.00381403
0.624584 0.385557 0 0.00380553
0.715676 0.16418 -9.25187e-19 0.00379533
0.715676 0.173822 0 0.00380189
0.715676 0.183814 0 0.00380745
0.67013 0.313423 0 0.00381461
0.523729 0.523639 0 0.00378925
0.715676 0.194169 0 0.00381211
0.574156 0.470415 3.46945e-18 0.00379659
0.624584 0.403236 0 0.00380613
0.743101 0.0241911 -7.70372e-34 0.00380931
0.412065 0.619475 3.08149e-33 0.00377484
0.715676 0.2049 0 0.00381596
0.151552 0.730005 0 0.00375563
0.67013 0.328484 3.46945e-18 0.00381513
0.350249 0.659208 0 0.00376803
0.467897 0.582034 0 0.00378103
0.715676 0.21602 0 0.00381909
0.219992 0.715441 0 0.00375851
0.075776 0.745097 -3.46945e-18 0.00375243
0.715676 0.227544 0 0.00382162
0.67013 0.344091 0 0.00381562
0.624584 0.421557 0 0.00380675
0.743101 0.128874 -7.70372e-34 0.00376219
0.715676 0.239487 3.70071e-18 0.00382363
0.574156 0.491175 0 0.00379728
0.756814 0.00184055 0 0.000289324
0.523729 0.546332 0 0.00378983
0.756813 0.00558849 0 0.000819144
0.756813 0.00947248 0 0.00323123
0.756814 0.0134975 -3.46945e-18 0.00444774
0.756814 0.0155459 0 0.00442446
0.756814 0.0176687 0 0.00439051
0.756814 0.0219913 0 0.00398037
0.756814 0.0264709 0 0.00368244
0.756814 0.031113 -3.46945e-18 0.00350798
0.756813 0.0359238 -3.46945e-18 0.00343653
0.288433 0.700877 0 0.00376366
0.756814 0.0409092 -3.46945e-18 0.00343232
0.756813 0.0460755 3.46945e-18 0.00345659
0.756813 0.0514296 0 0.0034918
0.715676 0.251863 0 0.00382521
0.756813 0.0569779 0 0.00352856
0.756814 0.0627277 -3.46945e-18 0.00356299
0.756814 0.0686863 -3.46945e-18 0.00359355
0 0.76019 0 0.00375
0.756814 0.0748612 0 0.00362012
0.67013 0.360265 3.46945e-18 0.00381611
0.756814 0.0812603 -3.46945e-18 0.0036441
0.756814 0.0878917 -3.46945e-18 0.00366675
0.756814 0.0947639 -3.46945e-18 0.00368798
0.715676 0.264688 0 0.00382644
0.756813 0.101886 0 0.00370765
0.624584 0.440544 0 0.0038074
0.756813 0.109266 3.46945e-18 0.0037257
0.756813 0.116914 3.46945e-18 0.00374215
0.412065 0.645647 0 0.00377525
0.467897 0.606847 0 0.00378151
0.756814 0.120806 0 0.00375051
0.756813 0.12484 0 0.00375704
0.715676 0.27798 0 0.0038274
0.756814 0.133054 -3.46945e-18 0.00377039
0.67013 0.377026 -3.46945e-18 0.00381661
0.756814 0.137234 0 0.00377728
0.574156 0.51269 0 0.00379794
0.756813 0.141566 3.46945e-18 0.00378225
0.685312 0.352034 -7.70372e-34 0.00382153
0.743101 0.2049 -7.70372e-34 0.00382512
0.350249 0.686824 0 0.00376839
0.756814 0.150387 0 0.0037927
0.756814 0.154876 0 0.00379827
0.715676 0.291753 0 0.00382815
0.756814 0.159528 -3.46945e-18 0.0038018
0.523729 0.569849 0 0.00379036
0.72743 0.264688 0 0.00383067
0.756814 0.16418 0 0.00380677
0.151552 0.76019 0 0.00375579
0.756813 0.169001 3.46945e-18 0.00380965
0.624584 0.46022 0 0.00380806
0.219993 0.745097 0 0.00375874
0.67013 0.394396 0 0.00381713
0.756813 0.178818 -3.46945e-18 0.00381634
0.715676 0.306027 0 0.00382874
0.075776 0.775831 0 0.0037525
0.756813 0.188991 0 0.00382198
0.756814 0.199535 0 0.00382666
0.715676 0.320819 0 0.00382924
0.574156 0.534985 0 0.00379854
0.288433 0.730005 0 0.00376394
0.756813 0.21046 0 0.00383049
0.467897 0.632561 0 0.00378195
0.67013 0.412396 -3.46945e-18 0.00381769
0.624584 0.48061 -3.08149e-33 0.00380871
0.756814 0.221782 0 0.00383359
0.412065 0.67277 3.08149e-33 0.00377562
0.715676 0.336148 0 0.00382968
0 0.791472 0 0.00375
0.756813 0.233516 3.46945e-18 0.00383606
0.523729 0.594219 0 0.00379084
0.624584 0.487654 1.54074e-33 0.00380892
0.756814 0.245675 3.46945e-18 0.00383799
0.350249 0.715441 3.46945e-18 0.00376873
0.67013 0.43105 0 0.00381827
0.715676 0.352034 -9.25187e-19 0.00383009
0.797951 9.08189e-19 -3.08149e-33 0.000255926
0.797951 0.00368111 2.31298e-18 0.000534251
0.797951 0.00749587 2.31298e-18 0.00207039
0.797951 0.0114491 2.31298e-18 0.00399828
0.797951 0.0141803 7.70372e-34 0.00444388
0.797951 0.0155459 0 0.00466669
0.797951 0.0169611 7.70372e-34 0.00458957
0.797951 0.0197915 2.31298e-18 0.00443534
0.797951 0.0219913 0 0.00422585
0.797951 0.0241911 3.08149e-33 0.00401635
0.797951 0.0264709 0 0.00386218
0.797951 0.0287506 -3.08149e-33 0.00370801
0.797951 0.0334755 2.31298e-18 0.00353261
0.797951 0.038372 2.31298e-18 0.00346164
0.797951 0.0434463 2.31298e-18 0.00345339
0.797951 0.0487048 0 0.00347452
0.756813 0.258275 -3.46945e-18 0.00383948
0.797951 0.0541543 2.31298e-18 0.00350662
0.797951 0.0598016 2.31298e-18 0.00354105
0.797951 0.0656539 2.31298e-18 0.00357368
0.574156 0.55809 0 0.00379909
0.624584 0.501741 0 0.00380933
0.797951 0.0717187 2.31298e-18 0.00360308
0.797951 0.0780037 -3.08149e-33 0.00362967
0.797951 0.0845169 2.31298e-18 0.00365457
0.797951 0.0912666 -3.08149e-33 0.00367813
0.797951 0.0982613 2.31298e-18 0.00370022
0.756813 0.271334 0 0.00384061
0.797951 0.10551 2.31298e-18 0.00372069
0.715676 0.368496 0 0.0038305
0.151552 0.791472 0 0.00375594
0.797951 0.113022 2.31298e-18 0.00373947
0.219992 0.775831 3.46945e-18 0.00375897
0.797951 0.118211 7.70372e-34 0.00375088
0.770526 0.239487 1.54074e-33 0.00384304
0.797951 0.120806 0 0.00375658
0.67013 0.450382 3.46945e-18 0.00381887
0.797951 0.128874 3.08149e-33 0.00377202
0.467897 0.659208 0 0.00378235
0.756813 0.284866 -3.46945e-18 0.00384147
0.743101 0.320819 -7.70372e-34 0.00383908
0.797951 0.137234 0 0.00378585
0.797951 0.141566 0 0.00379198
0.797951 0.145897 -9.25187e-19 0.00379811
0.523729 0.619475 0 0.00379127
0.075776 0.807681 0 0.00375258
0.797951 0.150387 0 0.00380349
0.797951 0.154876 0 0.00380887
0.715676 0.385557 0 0.00383092
0.412065 0.700877 3.08149e-33 0.00377596
0.288433 0.76019 0 0.0037642
0.756813 0.29889 0 0.00384212
0.797951 0.16418 0 0.00381821
0.624584 0.523639 0 0.00380992
0.797951 0.167394 7.70372e-34 0.00382089
0.797951 0.173822 2.31298e-18 0.00382624
0.574156 0.582034 0 0.00379958
0.67013 0.470415 0 0.00381948
0.797951 0.183814 2.31298e-18 0.00383304
0.756813 0.313423 -3.46945e-18 0.00384261
0.797951 0.194169 -9.25187e-19 0.00383874
0.715676 0.403236 0 0.00383137
0.151552 0.807681 0 0.00375601
0.797951 0.197746 -7.70372e-34 0.00384031
0.350249 0.745097 0 0.00376903
0.797951 0.2049 3.08149e-33 0.00384345
0 0.823889 0 0.00375
0.756813 0.328483 -3.46945e-18 0.00384301
0.797951 0.21046 0 0.00384537
0.797951 0.21602 -3.08149e-33 0.00384728
0.797951 0.223703 7.70372e-34 0.00384932
0.797951 0.227544 9.25187e-19 0.00385034
0.624584 0.546332 0 0.00381044
0.715676 0.421557 0 0.00383185
0.67013 0.491176 -3.46945e-18 0.00382008
0.797951 0.231525 7.70372e-34 0.00385114
0.467897 0.686824 -3.46945e-18 0.00378271
0.523729 0.645647 0 0.00379164
0.756813 0.344091 -3.46945e-18 0.00384336
0.822721 0.120806 7.70372e-34 0.00376149
0.797951 0.239487 -3.08149e-33 0.00385275
0.822721 0.137234 7.70372e-34 0.00379241
0.835106 0.00184056 0 0.000224254
0.835106 0.00558849 0 0.000806366
0.835106 0.00947248 0 0.00342026
0.835106 0.0134975 0 0.00487758
0.835107 0.0176687 0 0.00492539
0.835106 0.0219913 -3.46945e-18 0.00441929