# kMean  POINT_DATA 63140
# x  y  z  kMean
0 0.1 0 0.00375
0 0.1 -0.0179898 0.00375
0 0.1 0.0179898 0.00375
0.0363518 0.1 0.0179898 0.00374759
0.0363518 0.1 -0.0179898 0.00374756
0 0.1 -0.0570102 0.00375
0 0.1 0.0570102 0.00375
0.0363518 0.1 0.0570102 0.00374759
0.0363518 0.1 -0.0570102 0.00374756
0 0.1 -0.075 0.00375
0 0.1 0.075 0.00375
0.075776 0.1 -0.0375 0.00374466
0.075776 0.1 0.0375 0.00374473
0 0.1 -0.0929898 0.00375
0 0.1 0.0929898 0.00375
0.0363518 0.1 -0.0929898 0.0037477
0.0363518 0.1 0.0929898 0.00374777
0 0.1 -0.13201 0.00375
0 0.1 0.13201 0.00375
0.075776 0.1 -0.1125 0.00374494
0.075776 0.1 0.1125 0.00374509
0.0363518 0.1 -0.13201 0.0037477
0.0363518 0.1 0.13201 0.00374777
0 0.1 -0.15 0.00375
0 0.1 0.15 0.00375
0.150379 0.1 -2.22623e-17 0.00373816
0 0.1 -0.16799 0.00375
0 0.1 0.16799 0.00375
0.150379 0.1 -0.075 0.00373866
0.150379 0.1 0.075 0.00373834
0.0363518 0.1 -0.16799 0.00374798
0.0363518 0.1 0.16799 0.00374809
0.075776 0.1 -0.1875 0.00374552
0.075776 0.1 0.1875 0.00374574
0 0.1 -0.20701 0.00375
0 0.1 0.20701 0.00375
0.0363518 0.1 -0.20701 0.00374798
0.0363518 0.1 0.20701 0.00374809
0.150379 0.1 -0.15 0.00373947
0.150379 0.1 0.15 0.00373908
0.219993 0.1 -0.0375 0.00373214
0.219993 0.1 0.0375 0.00373172
0 0.1 -0.225 0.00375
0 0.1 0.225 0.00375
0 0.1 -0.24299 0.00375
0 0.1 0.24299 0.00375
0.0363518 0.1 0.24299 0.00374848
0.0363518 0.1 -0.24299 0.00374825
0.219993 0.1 -0.1125 0.00373345
0.219993 0.1 0.1125 0.00373242
0.150379 0.1 -0.225 0.00374026
0.150379 0.1 0.225 0.00374014
0.075776 0.1 -0.2625 0.00374607
0.075776 0.1 0.2625 0.00374655
0 0.1 -0.28201 0.00375
0 0.1 0.28201 0.00375
0.0363518 0.1 -0.28201 0.00374825
0.0363518 0.1 0.28201 0.00374848
0.287374 0.1 -2.89121e-19 0.00372506
0.219992 0.1 0.1875 0.00373365
0.219992 0.1 -0.1875 0.00373448
0.287374 0.1 -0.075 0.00372614
0.287374 0.1 0.075 0.00372491
0 0.1 -0.3 0.00375
0 0.1 0.3 0.00375
0 0.1 0.31799 0.00375
0 0.1 -0.31799 0.00375
0.0363518 0.1 -0.31799 0.0037485
0.0363518 0.1 0.31799 0.00374888
0.287374 0.1 0.15 0.00372569
0.287374 0.1 -0.15 0.00372751
0.150379 0.1 -0.3 0.00374104
0.150379 0.1 0.3 0.00374134
0.219993 0.1 0.2625 0.00373515
0.219993 0.1 -0.2625 0.00373548
0.075776 0.1 -0.3375 0.00374658
0.075776 0.1 0.3375 0.00374737
0.350249 0.1 -0.0375 0.00371896
0.350249 0.1 0.0375 0.003718
0 0.1 -0.35701 0.00375
0 0.1 0.35701 0.00375
0.0363518 0.1 -0.35701 0.0037485
0.0363518 0.1 0.35701 0.00374888
0.287374 0.1 -0.225 0.00372871
0.287374 0.1 0.225 0.00372707
0.350249 0.1 -0.1125 0.00372056
0.350249 0.1 0.1125 0.0037181
0 0.1 -0.375 0.00375
0 0.1 0.375 0.00375
0 0.1 -0.39299 0.00375
0 0.1 0.39299 0.00375
0.0363518 0.1 -0.39299 0.00374872
0.0363518 0.1 0.39299 0.0037492
0.350249 0.1 -0.1875 0.00372208
0.350249 0.1 0.1875 0.0037192
0.219992 0.1 -0.3375 0.00373651
0.219992 0.1 0.3375 0.00373677
0.150379 0.1 0.375 0.00374249
0.150379 0.1 -0.375 0.00374175
0.411108 0.1 4.33681e-19 0.0037132
0.287374 0.1 -0.3 0.00372979
0.287374 0.1 0.3 0.00372873
0.411108 0.1 -0.075 0.0037146
0.411108 0.1 0.075 0.00371251
0.075776 0.1 -0.4125 0.00374705
0.075776 0.1 0.4125 0.00374803
0 0.1 0.43201 0.00375
0 0.1 -0.43201 0.00375
0.0363518 0.1 0.43201 0.0037492
0.0363518 0.1 -0.43201 0.00374872
0.411108 0.1 -0.15 0.00371619
0.411108 0.1 0.15 0.00371279
0.350249 0.1 -0.2625 0.00372331
0.350249 0.1 0.2625 0.00372087
0 0.1 -0.45 0.00375
0 0.1 0.45 0.00375
0.219992 0.1 0.4125 0.00373824
0.219992 0.1 -0.4125 0.00373732
0 0.1 -0.46799 0.00375
0 0.1 0.46799 0.00375
0.411108 0.1 -0.225 0.00371756
0.411108 0.1 0.225 0.00371392
0.467897 0.1 -0.0375 0.00370878
0.467897 0.1 0.0375 0.00370744
0.0363518 0.1 0.46799 0.00374947
0.0363518 0.1 -0.46799 0.00374896
0.287374 0.1 -0.375 0.00373072
0.287374 0.1 0.375 0.00373041
0.150379 0.1 0.45 0.00374332
0.150379 0.1 -0.45 0.00374228
0.467897 0.1 0.1125 0.0037069
0.467897 0.1 -0.1125 0.00371046
0.350249 0.1 -0.3375 0.00372437
0.350249 0.1 0.3375 0.0037227
0.075776 0.1 -0.4875 0.00374754
0.075776 0.1 0.4875 0.0037486
0.467897 0.1 0.1875 0.00370738
0.467897 0.1 -0.1875 0.00371201
0 0.1 -0.50701 0.00375
0 0.1 0.50701 0.00375
0.0363518 0.1 -0.50701 0.00374896
0.0363518 0.1 0.50701 0.00374947
0.411108 0.1 0.3 0.00371554
0.411108 0.1 -0.3 0.00371866
0.522865 0.1 1.41031e-17 0.0037051
0 0.1 -0.525 0.00375
0 0.1 0.525 0.00375
0.522865 0.1 -0.075 0.00370661
0.522865 0.1 0.075 0.00370398
0.287374 0.1 0.45 0.00373171
0.287374 0.1 -0.45 0.00373135
0.219992 0.1 0.4875 0.00373887
0.219992 0.1 -0.4875 0.00373765
0.467897 0.1 -0.2625 0.00371319
0.467897 0.1 0.2625 0.00370867
0.350249 0.1 -0.4125 0.00372517
0.350249 0.1 0.4125 0.0037245
0 0.1 -0.54299 0.00375
0 0.1 0.54299 0.00375
0.522865 0.1 0.15 0.0037036
0.522865 0.1 -0.15 0.0037081
0.0363518 0.1 0.54299 0.00374974
0.0363518 0.1 -0.54299 0.0037492
0.150379 0.1 -0.525 0.00374278
0.150379 0.1 0.525 0.00374392
0.411108 0.1 -0.375 0.0037195
0.411108 0.1 0.375 0.0037173
0.075776 0.1 -0.5625 0.00374803
0.075776 0.1 0.5625 0.00374914
0.522865 0.1 -0.225 0.00370929
0.522865 0.1 0.225 0.00370409
0.574156 0.1 0.0375 0.00370139
0.574157 0.1 -0.0375 0.0037029
0.467897 0.1 -0.3375 0.00371411
0.467897 0.1 0.3375 0.00371035
0 0.1 -0.58201 0.00375
0 0.1 0.58201 0.00375
0.0363518 0.1 -0.58201 0.0037492
0.0363518 0.1 0.58201 0.00374974
0.574157 0.1 -0.1125 0.00370442
0.574157 0.1 0.1125 0.0037003
0.287374 0.1 -0.525 0.00373191
0.287374 0.1 0.525 0.00373257
0 0.1 -0.6 0.00375
0 0.1 0.6 0.00375
0.350249 0.1 0.4875 0.00372577
0.350249 0.1 -0.4875 0.00372573
0.522865 0.1 -0.3 0.00371013
0.522865 0.1 0.3 0.00370524
0.219992 0.1 -0.5625 0.00373834
0.219992 0.1 0.5625 0.00373952
0.574156 0.1 -0.1875 0.00370565
0.574156 0.1 0.1875 0.00369999
0.411108 0.1 0.45 0.00371886
0.411108 0.1 -0.45 0.00372008
0 0.1 -0.61799 0.00375
0 0.1 0.61799 0.00375
0.150379 0.1 -0.6 0.00374339
0.150379 0.1 0.6 0.00374453
0.0363518 0.1 -0.61799 0.00374944
0.0363518 0.1 0.61799 0.00374999
0.467897 0.1 -0.4125 0.00371469
0.467897 0.1 0.4125 0.0037121
0.623803 0.1 2.34188e-17 0.00370129
0.623803 0.1 0.075 0.00369991
0.623803 0.1 -0.075 0.00370271
0.574156 0.1 0.2625 0.00370053
0.574156 0.1 -0.2625 0.00370645
0.623803 0.1 0.15 0.00369894
0.623803 0.1 -0.15 0.00370389
0.075776 0.1 0.6375 0.00374966
0.075776 0.1 -0.6375 0.00374853
0.522865 0.1 -0.375 0.00371065
0.522865 0.1 0.375 0.00370671
0 0.1 0.65701 0.00375
0 0.1 -0.65701 0.00375
0.0363518 0.1 0.65701 0.00374999
0.0363518 0.1 -0.65701 0.00374944
0.350249 0.1 0.5625 0.00372666
0.350249 0.1 -0.5625 0.00372639
0.623803 0.1 0.225 0.00369864
0.623803 0.1 -0.225 0.00370465
0.287374 0.1 -0.6 0.00373261
0.287374 0.1 0.6 0.00373333
0.574157 0.1 -0.3375 0.00370694
0.574157 0.1 0.3375 0.00370163
0.411108 0.1 0.525 0.00372
0.411108 0.1 -0.525 0.00372058
0.67013 0.1 0.0375 0.00369965
0.67013 0.1 -0.0375 0.00370112
0.219992 0.1 -0.6375 0.00373909
0.219993 0.1 0.6375 0.00374023
0 0.1 -0.675 0.00375
0 0.1 0.675 0.00375
0.467897 0.1 -0.4875 0.0037151
0.467897 0.1 0.4875 0.00371352
0.67013 0.1 -0.1125 0.00370232
0.67013 0.1 0.1125 0.0036982
0.522865 0.1 0.45 0.00370814
0.522865 0.1 -0.45 0.00371087
0.150379 0.1 0.675 0.00374515
0.150379 0.1 -0.675 0.00374399
0.623803 0.1 0.3 0.00369903
0.623803 0.1 -0.3 0.00370497
0 0.1 -0.69299 0.00375
0 0.1 0.69299 0.00375
0.0363518 0.1 -0.69299 0.00374968
0.0363518 0.1 0.69299 0.00375024
0.67013 0.1 -0.1875 0.00370308
0.67013 0.1 0.1875 0.00369717
0.574156 0.1 0.4125 0.00370299
0.574157 0.1 -0.4125 0.00370702
0.714971 0.1 -2.8382e-17 0.00370149
0.075776 0.1 -0.7125 0.00374902
0.075776 0.1 0.7125 0.00375017
0.714971 0.1 -0.075 0.00370265
0.714971 0.1 0.075 0.00370004
0.67013 0.1 0.2625 0.00369683
0.67013 0.1 -0.2625 0.00370337
0.411108 0.1 -0.6 0.00372111
0.411108 0.1 0.6 0.00372082
0.350249 0.1 0.6375 0.00372742
0.350249 0.1 -0.6375 0.00372709
0.623803 0.1 0.375 0.00369987
0.623803 0.1 -0.375 0.00370486
0.714971 0.1 -0.15 0.00370335
0.714971 0.1 0.15 0.00369861
0.467897 0.1 -0.5625 0.00371548
0.467897 0.1 0.5625 0.00371448
0 0.1 -0.73201 0.00375
0 0.1 0.73201 0.00375
0.0363518 0.1 0.73201 0.00375024
0.0363518 0.1 -0.73201 0.00374968
0.287374 0.1 -0.675 0.00373329
0.287374 0.1 0.675 0.00373407
0.522865 0.1 -0.525 0.00371095
0.522865 0.1 0.525 0.00370921
0.219993 0.1 -0.7125 0.00373976
0.219992 0.1 0.7125 0.00374098
0.714971 0.1 -0.225 0.00370352
0.714971 0.1 0.225 0.00369755
0 0.1 0.75 0.00375
0 0.1 -0.75 0.00375
0.67013 0.1 -0.3375 0.00370308
0.67013 0.1 0.3375 0.00369709
0.574156 0.1 -0.4875 0.00370687
0.574157 0.1 0.4875 0.00370418
0.756813 0.1 0.0375 0.00370181
0.756814 0.1 -0.0375 0.00370307
0.150379 0.1 0.746002 0.00374581
0.150379 0.1 -0.75 0.00374455
0.756813 0.1 -0.1125 0.00370381
0.756813 0.1 0.1125 0.0037002
0 0.1 0.76799 0.00375
0 0.1 -0.76799 0.00375
0.0363518 0.1 0.76799 0.00375045
0.0363518 0.1 -0.76799 0.00374989
0.623803 0.1 -0.45 0.00370441
0.623803 0.1 0.45 0.00370082
0.714971 0.1 -0.3 0.00370309
0.714971 0.1 0.3 0.00369704
0.756814 0.1 -0.1875 0.00370394
0.756814 0.1 0.1875 0.00369858
0.67013 0.1 -0.4125 0.00370238
0.67013 0.1 0.4125 0.00369776
0.411108 0.1 0.675 0.00372153
0.411108 0.1 -0.675 0.00372162
0.467897 0.1 0.6375 0.00371517
0.467897 0.1 -0.6375 0.00371588
0.075776 0.1 0.7875 0.00375061
0.075776 0.1 -0.7875 0.00374946
0.350249 0.1 -0.7125 0.00372772
0.350249 0.1 0.7125 0.00372818
0.522865 0.1 -0.6 0.00371097
0.522865 0.1 0.6 0.00370987
0.797314 0.1 -3.59473e-17 0.00370527
0.287374 0.1 0.746002 0.0037349
0.797314 0.1 -0.075 0.00370605
0.797314 0.1 0.075 0.00370391
0.756814 0.1 -0.2625 0.00370344
0.756814 0.1 0.2625 0.00369736
0.287374 0.1 -0.75 0.00373391
0.574156 0.1 -0.5625 0.00370658
0.574156 0.1 0.5625 0.00370491
0 0.1 0.80701 0.00375
0 0.1 -0.80701 0.00375
0.714971 0.1 -0.375 0.00370214
0.714971 0.1 0.375 0.00369701
0.0363518 0.1 0.80701 0.00375045
0.0363518 0.1 -0.80701 0.00374989
0.797314 0.1 -0.15 0.00370617
0.797314 0.1 0.15 0.00370219
0.623803 0.1 -0.525 0.00370374
0.623803 0.1 0.525 0.0037015
0.219992 0.1 0.7875 0.00374168
0.219992 0.1 -0.7875 0.00374036
0.149792 0.1 0.80701 0.00374619
0 0.1 0.825 0.00375
0 0.1 -0.825 0.00375
0.797314 0.1 -0.225 0.00370556
0.797314 0.1 0.225 0.00370047
0.756813 0.1 -0.3375 0.00370228
0.756813 0.1 0.3375 0.00369665
0.67013 0.1 0.4875 0.00369837
0.67013 0.1 -0.4875 0.00370138
0.835106 0.1 -0.0375 0.00370835
0.835106 0.1 0.0375 0.00370741
0.150379 0.1 -0.825 0.00374503
0.835106 0.1 -0.1125 0.00370855
0.835106 0.1 0.1125 0.00370579
0 0.1 -0.84299 0.00375
0 0.1 0.84299 0.00375
0.0363518 0.1 -0.84299 0.00375008
0.0363518 0.1 0.84299 0.00375063
0.714971 0.1 -0.45 0.00370077
0.714971 0.1 0.45 0.00369721
0.411108 0.1 0.746002 0.00372229
0.797314 0.1 -0.3 0.00370425
0.797314 0.1 0.3 0.00369905
0.467897 0.1 -0.7125 0.00371618
0.467897 0.1 0.7125 0.00371578
0.522865 0.1 0.675 0.00371026
0.522865 0.1 -0.675 0.00371095
0.411108 0.1 -0.75 0.00372203
0.835106 0.1 -0.1875 0.00370796
0.835107 0.1 0.1875 0.00370377
0.286844 0.1 0.80701 0.00373538
0.574156 0.1 0.6375 0.00370517
0.574157 0.1 -0.6375 0.0037062
0.350249 0.1 -0.7875 0.00372828
0.350249 0.1 0.7875 0.00372895
0.756813 0.1 -0.4125 0.00370062
0.756814 0.1 0.4125 0.00369635
0.623803 0.1 -0.6 0.00370294
0.623803 0.1 0.6 0.00370172
0.075776 0.1 0.8625 0.00375098
0.075776 0.1 -0.8625 0.00374986
0.871687 0.1 -3.2767e-18 0.00371212
0.287374 0.1 -0.825 0.00373443
0.871687 0.1 -0.075 0.00371243
0.871687 0.1 0.075 0.00371098
0.67013 0.1 -0.5625 0.00370019
0.67013 0.1 0.5625 0.00369857
0.835106 0.1 0.2625 0.00370175
0.835106 0.1 -0.2625 0.00370652
0.797314 0.1 -0.375 0.00370231
0.797314 0.1 0.375 0.00369801
0 0.1 -0.88201 0.00375
0 0.1 0.88201 0.00375
0.0363518 0.1 0.88201 0.00375063
0.0363518 0.1 -0.88201 0.00375008
0.871687 0.1 0.15 0.00370913
0.871687 0.1 -0.15 0.00371187
0.714971 0.1 0.525 0.00369723
0.714971 0.1 -0.525 0.00369911
0.219993 0.1 0.8625 0.00374229
0.219992 0.1 -0.8625 0.00374086
0 0.1 0.9 0.00375
0 0.1 -0.9 0.00375
0.756813 0.1 0.4875 0.00369617
0.756814 0.1 -0.4875 0.00369855
0.871687 0.1 0.225 0.00370688
0.871687 0.1 -0.225 0.00371041
0.835106 0.1 -0.3375 0.00370439
0.835106 0.1 0.3375 0.00370005
0.41063 0.1 0.80701 0.00372274
0.90582 0.1 -0.0375 0.00371635
0.905821 0.1 0.0375 0.00371581
0.522865 0.1 0.746002 0.00371064
0.150379 0.1 0.9 0.00374674
0.90582 0.1 0.1125 0.00371432
0.905821 0.1 -0.1125 0.00371593
0.522865 0.1 -0.75 0.00371085
0.574156 0.1 0.7125 0.00370518
0.574156 0.1 -0.7125 0.0037058
0.797314 0.1 -0.45 0.00369986
0.797314 0.1 0.45 0.00369725
0.467897 0.1 -0.7875 0.00371635
0.467897 0.1 0.7875 0.00371638
0.150379 0.1 -0.903998 0.00374531
0 0.1 0.91799 0.00375
0 0.1 -0.91799 0.00375
0.0363518 0.1 0.91799 0.00375078
0.0363518 0.1 -0.91799 0.00375024
0.623803 0.1 0.675 0.00370153
0.623803 0.1 -0.675 0.00370205
0.411108 0.1 -0.825 0.00372232
0.871687 0.1 0.3 0.00370461
0.871687 0.1 -0.3 0.00370813
0.67013 0.1 -0.6375 0.00369886
0.67013 0.1 0.6375 0.00369829
0.90582 0.1 -0.1875 0.00371453
0.90582 0.1 0.1875 0.00371206
0.350249 0.1 0.8625 0.00372967
0.350249 0.1 -0.8625 0.00372873
0.835106 0.1 -0.4125 0.00370163
0.835106 0.1 0.4125 0.00369864
0.714971 0.1 -0.6 0.00369726
0.714971 0.1 0.6 0.00369681
0.93886 0.1 -1.15648e-17 0.00372171
0.075776 0.1 0.9375 0.00375128
0.075776 0.1 -0.9375 0.00375019
0.93886 0.1 0.075 0.00372085
0.93886 0.1 -0.075 0.00372151
0.756813 0.1 0.5625 0.00369566
0.756814 0.1 -0.5625 0.00369621
0.905821 0.1 -0.2625 0.00371213
0.905821 0.1 0.2625 0.00370939
0.287374 0.1 0.9 0.00373613
0.287374 0.1 -0.903998 0.00373468
0.871687 0.1 0.375 0.00370253
0.871687 0.1 -0.375 0.00370509
0.93886 0.1 -0.15 0.00372027
0.93886 0.1 0.15 0.00371898
0.797314 0.1 0.525 0.00369644
0.797314 0.1 -0.525 0.00369704
0 0.1 0.95701 0.00375
0 0.1 -0.95701 0.00375
0.0363518 0.1 0.95701 0.00375078
0.0363518 0.1 -0.95701 0.00375024
0.522433 0.1 0.80701 0.00371081
0.219992 0.1 0.9375 0.00374278
0.219992 0.1 -0.9375 0.00374125
0.93886 0.1 0.225 0.00371636
0.93886 0.1 -0.225 0.00371795
0.90582 0.1 0.3375 0.00370673
0.905821 0.1 -0.3375 0.003709
0.835106 0.1 -0.4875 0.00369838
0.835107 0.1 0.4875 0.0036975
0.969689 0.1 -0.0375 0.00372707
0.969689 0.1 0.0375 0.00372695
0.61613 0.1 0.75 0.00370114
0.574156 0.1 -0.7875 0.00370537
0.574156 0.1 0.7875 0.00370519
0 0.1 0.975 0.00375
0 0.1 -0.975 0.00375
0.623803 0.1 -0.75 0.00370112
0.969689 0.1 -0.1125 0.00372607
0.969689 0.1 0.1125 0.00372564
0.522865 0.1 -0.825 0.00371065
0.67013 0.1 0.7125 0.00369759
0.67013 0.1 -0.7125 0.00369745
0.871687 0.1 -0.45 0.0037014
0.871687 0.1 0.45 0.00370067
0.467897 0.1 0.8625 0.00371692
0.467897 0.1 -0.8625 0.00371637
0.714971 0.1 -0.675 0.0036953
0.714971 0.1 0.675 0.00369591
0.93886 0.1 -0.3 0.00371464
0.93886 0.1 0.3 0.00371336
0.150379 0.1 0.975 0.00374708
0.150379 0.1 -0.975 0.00374576
0.969689 0.1 -0.1875 0.00372394
0.969689 0.1 0.1875 0.00372325
0.411108 0.1 0.9 0.00372345
0.756813 0.1 0.6375 0.00369461
0.756814 0.1 -0.6375 0.00369372
0.990306 0.1 -2.19732e-17 0.00372788
0 0.1 0.99299 0.00375
0 0.1 -0.99299 0.00375
0.411108 0.1 -0.903998 0.00372235
0.990306 0.1 -0.075 0.00372734
0.990306 0.1 0.075 0.00372724
0.0363518 0.1 0.99299 0.00375088
0.0363518 0.1 -0.99299 0.00375037
0.90582 0.1 -0.4125 0.00370491
0.905821 0.1 0.4125 0.00370421
0.797314 0.1 -0.6 0.00369397
0.797314 0.1 0.6 0.00369522
0.350249 0.1 0.9375 0.00373028
0.350249 0.1 -0.9375 0.00372904
0.990306 0.1 0.15 0.00372541
0.990306 0.1 -0.15 0.00372564
0.969689 0.1 -0.2625 0.0037206
0.969689 0.1 0.2625 0.00372009
0.835106 0.1 -0.5625 0.00369478
0.835106 0.1 0.5625 0.00369612
0.93886 0.1 -0.375 0.00371032
0.93886 0.1 0.375 0.00371032
0.075776 0.1 1.0125 0.0037515
0.075776 0.1 -1.0125 0.00375044
0.990306 0.1 -0.225 0.00372272
0.990306 0.1 0.225 0.00372258
0.287374 0.1 0.975 0.00373661
0.287374 0.1 -0.975 0.00373514
0.871687 0.1 -0.525 0.00369725
0.871687 0.1 0.525 0.00369883
1.02149 0.1 -0.0369628 0.00373417
1.02149 0.1 0.0369628 0.00373436
0.969689 0.1 -0.3375 0.00371626
0.969689 0.1 0.3375 0.0037166
1.02149 0.1 -0.110888 0.00373278
1.02149 0.1 0.110888 0.00373326
0.90582 0.1 0.4875 0.00370186
0.90582 0.1 -0.4875 0.00370028
0.623803 0.1 0.819003 0.00370031
0 0.1 1.03201 0.00375
0 0.1 -1.03201 0.00375
0.0363518 0.1 1.03201 0.00375088
0.0363518 0.1 -1.03201 0.00375037
0.67013 0.1 -0.7875 0.00369603
0.67013 0.1 0.7875 0.00369671
0.623803 0.1 -0.825 0.00370015
0.990306 0.1 -0.3 0.00371862
0.990306 0.1 0.3 0.00371911
0.219992 0.1 -1.0125 0.00374154
0.219993 0.1 1.0125 0.00374313
0.574156 0.1 0.8625 0.00370523
0.574157 0.1 -0.8625 0.00370483
0.714971 0.1 -0.75 0.00369327
0.714971 0.1 0.75 0.00369467
1.02149 0.1 0.184814 0.00373092
1.02149 0.1 -0.184814 0.00373019
0.756814 0.1 -0.7125 0.00369113
0.756814 0.1 0.7125 0.00369308
0.522865 0.1 0.9 0.00371112
0.93886 0.1 -0.45 0.00370521
0.93886 0.1 0.45 0.00370736
1.04168 0.1 0 0.00373895
1.04168 0.1 -0.0729162 0.00373803
1.04168 0.1 0.0729162 0.0037386
0.522865 0.1 -0.903998 0.00371023
0.797314 0.1 -0.675 0.00369074
0.797314 0.1 0.675 0.00369346
0.467897 0.1 0.9375 0.00371737
0.467897 0.1 -0.9375 0.00371631
0 0.1 1.05 0.00375
0 0.1 -1.05 0.00375
0.835106 0.1 -0.6375 0.00369095
0.835106 0.1 0.6375 0.00369419
1.04168 0.1 -0.145832 0.0037359
1.04168 0.1 0.145832 0.00373695
1.02149 0.1 -0.25874 0.00372623
1.02149 0.1 0.25874 0.00372757
0.969689 0.1 -0.4125 0.00371058
0.969689 0.1 0.4125 0.00371312
0.411108 0.1 0.975 0.00372392
0.411108 0.1 -0.975 0.00372257
0.871687 0.1 -0.6 0.00369277
0.871687 0.1 0.6 0.00369667
1.0579 0.1 -0.0360525 0.00374274
1.0579 0.1 0.0360525 0.00374315
0.990306 0.1 -0.375 0.0037133
0.990306 0.1 0.375 0.0037154
0.150379 0.1 1.05 0.00374731
0.150379 0.1 -1.05 0.00374599
1.0579 0.1 0.108157 0.00374224
1.0579 0.1 -0.108157 0.00374111
1.04168 0.1 -0.218749 0.00373243
1.04168 0.1 0.218749 0.00373411
0.90582 0.1 -0.5625 0.00369523
0.90582 0.1 0.5625 0.00369942
0 0.1 -1.06799 0.00375
0 0.1 1.06799 0.00375
0.0363518 0.1 -1.06799 0.00375046
0.0363518 0.1 1.06799 0.00375095
0.350249 0.1 1.0125 0.00373075
0.350249 0.1 -1.0125 0.00372924
1.0579 0.1 -0.180262 0.00373823
1.0579 0.1 0.180262 0.00374002
1.02149 0.1 -0.332665 0.00372103
1.02149 0.1 0.332665 0.00372359
0.93886 0.1 -0.525 0.00369966
0.93886 0.1 0.525 0.00370444
1.08012 0.1 5.49329e-18 0.00374893
1.04168 0.1 -0.291665 0.00372759
1.04168 0.1 0.291665 0.00373035
1.08012 0.1 0.0709941 0.00374879
1.08012 0.1 -0.0709941 0.00374779
0.969689 0.1 -0.4875 0.00370458
0.96969 0.1 0.4875 0.00370967
1.0579 0.1 0.252367 0.00373667
1.0579 0.1 -0.252367 0.00373387
0.990306 0.1 -0.45 0.00370715
0.990306 0.1 0.45 0.00371164
0.287374 0.1 -1.05 0.00373534
0.287374 0.1 1.05 0.00373695
0.714971 0.1 0.821002 0.00369335
1.08012 0.1 -0.141988 0.00374541
1.08012 0.1 0.141988 0.00374731
0.075776 0.1 1.0875 0.00375164
0.075776 0.1 -1.0875 0.00375063
0.714971 0.1 -0.825 0.00369122
0.756813 0.1 -0.7875 0.00368847
0.756814 0.1 0.7875 0.00369126
0.67013 0.1 -0.8625 0.00369458
0.67013 0.1 0.8625 0.0036959
0.797314 0.1 -0.75 0.00368742
0.797314 0.1 0.75 0.00369127
0.623803 0.1 0.9 0.00370036
0.835106 0.1 -0.7125 0.003687
0.835106 0.1 0.7125 0.0036917
0.623803 0.1 -0.903998 0.00369909
0.574156 0.1 0.9375 0.00370529
0.574156 0.1 -0.9375 0.00370413
1.02149 0.1 -0.406591 0.00371445
1.02149 0.1 0.406591 0.00371936
1.08012 0.1 -0.212982 0.0037416
1.08012 0.1 0.212982 0.00374456
1.10076 0.1 -0.0349809 0.00375422
1.10076 0.1 0.0349809 0.00375485
0.871687 0.1 -0.675 0.00368808
0.871687 0.1 0.675 0.00369395
1.04168 0.1 -0.364581 0.00372138
1.04168 0.1 0.364581 0.00372605
1.10076 0.1 -0.104943 0.00375237
1.10076 0.1 0.104943 0.00375414
0.522865 0.1 0.975 0.00371135
0.522865 0.1 -0.975 0.00370991
1.0579 0.1 -0.324472 0.00372814
1.0579 0.1 0.324472 0.0037325
0 0.1 -1.10701 0.00375
0 0.1 1.10701 0.00375
0.0363518 0.1 1.10701 0.00375095
0.0363518 0.1 -1.10701 0.00375046
0.90582 0.1 0.6375 0.00369654
0.905821 0.1 -0.6375 0.00368983
0.219992 0.1 1.0875 0.00374335
0.219992 0.1 -1.0875 0.00374173
0.93886 0.1 0.6 0.0037012
0.93886 0.1 -0.6 0.00369373
1.10076 0.1 -0.174905 0.00374923
1.10076 0.1 0.174905 0.00375207
0.467897 0.1 1.0125 0.00371772
0.467897 0.1 -1.0125 0.00371617
1.08012 0.1 -0.283976 0.0037363
1.08012 0.1 0.283976 0.00374076
1.11928 0.1 3.93204e-18 0.00375995
0.990306 0.1 -0.525 0.0037006
0.990306 0.1 0.525 0.0037079
0.96969 0.1 -0.5625 0.0036981
0.969689 0.1 0.5625 0.00370625
1.11928 0.1 -0.0690357 0.00375864
1.11928 0.1 0.0690357 0.00375999
0 0.1 1.125 0.00375
0 0.1 -1.125 0.00375
0.411108 0.1 -1.05 0.00372255
0.411108 0.1 1.05 0.00372425
1.10076 0.1 0.244866 0.00374876
1.10076 0.1 -0.244866 0.00374443
1.11928 0.1 -0.138072 0.00375606
1.11928 0.1 0.138072 0.00375868
1.02149 0.1 0.480517 0.00371502
1.02149 0.1 -0.480517 0.00370753
1.0579 0.1 -0.396577 0.00372104
1.0579 0.1 0.396577 0.00372789
1.04168 0.1 -0.437497 0.00371429
1.04168 0.1 0.437497 0.0037215
0.150379 0.1 1.125 0.00374744
0.150379 0.1 -1.125 0.00374614
0.714971 0.1 0.88201 0.00369095
1.08012 0.1 0.354971 0.00373622
1.08012 0.1 -0.354971 0.00372959
1.11928 0.1 -0.207107 0.00375195
1.11928 0.1 0.207107 0.00375606
0.350249 0.1 -1.0875 0.00372933
0.350249 0.1 1.0875 0.00373107
0 0.1 1.14299 0.00375
0 0.1 -1.14299 0.00375
0.0363518 0.1 1.14299 0.00375098
0.0363518 0.1 -1.14299 0.00375053
1.14316 0.1 -0.0339211 0.00376689
1.14316 0.1 0.0339211 0.0037677
0.797314 0.1 0.821002 0.00368898
1.10076 0.1 -0.314829 0.00373817
1.10076 0.1 0.314829 0.00374443
0.797314 0.1 -0.825 0.0036841
0.756814 0.1 -0.8625 0.00368588
0.756814 0.1 0.8625 0.00368932
1.14316 0.1 -0.101763 0.00376485
1.14316 0.1 0.101763 0.00376719
0.835106 0.1 -0.7875 0.00368297
0.835106 0.1 0.7875 0.00368883
0.871687 0.1 -0.75 0.00368334
0.871687 0.1 0.75 0.00369068
0.67013 0.1 0.9375 0.0036952
0.67013 0.1 -0.9375 0.00369306
0.90582 0.1 -0.7125 0.00368428
0.905821 0.1 0.7125 0.00369298
0.714971 0.1 -0.903998 0.0036893
1.11928 0.1 0.276143 0.00375227
1.11928 0.1 -0.276143 0.00374625
1.14316 0.1 0.169605 0.00376532
1.14316 0.1 -0.169605 0.00376143
0.93886 0.1 -0.675 0.00368758
0.93886 0.1 0.675 0.00369739
1.15704 0.1 0 0.00377165
1.0579 0.1 0.468682 0.00372305
1.0579 0.1 -0.468682 0.00371351
0.623803 0.1 0.975 0.00370004
0.623803 0.1 -0.975 0.00369799
0.990306 0.1 0.6 0.0037038
0.990306 0.1 -0.6 0.00369364
1.15704 0.1 -0.0671479 0.0037702
1.15704 0.1 0.0671479 0.00377185
1.04168 0.1 -0.510414 0.00370685
1.04168 0.1 0.510414 0.00371684
0.969689 0.1 -0.6375 0.00369134
0.969689 0.1 0.6375 0.00370207
1.08012 0.1 0.425965 0.00373126
1.08012 0.1 -0.425965 0.00372193
0.287374 0.1 -1.125 0.00373543
0.287374 0.1 1.125 0.00373715
1.02149 0.1 -0.554443 0.00370017
1.02149 0.1 0.554443 0.00371066
0.574156 0.1 1.0125 0.00370536
0.574156 0.1 -1.0125 0.00370341
1.15704 0.1 -0.134296 0.00376744
1.15704 0.1 0.134296 0.0037707
0.075776 0.1 1.1625 0.00375171
0.075776 0.1 -1.1625 0.00375077
1.10076 0.1 -0.384791 0.0037305
1.10076 0.1 0.384791 0.00373947
1.14316 0.1 -0.237448 0.00375626
1.14316 0.1 0.237448 0.00376217
1.11928 0.1 -0.345179 0.00373911
1.11928 0.1 0.345179 0.00374758
0.522865 0.1 1.05 0.00371148
0.522865 0.1 -1.05 0.00370945
1.15704 0.1 -0.201444 0.00376307
1.15704 0.1 0.201444 0.00376822
1.1744 0.1 -0.0331401 0.00377641
1.1744 0.1 0.0331401 0.0037773
1.1744 0.1 -0.0994202 0.00377433
1.1744 0.1 0.0994202 0.00377689
0 0.1 1.18201 0.00375
0 0.1 -1.18201 0.00375
0.0363518 0.1 1.18201 0.00375098
0.0363518 0.1 -1.18201 0.00375053
0.219992 0.1 1.1625 0.00374345
0.219993 0.1 -1.1625 0.00374183
1.14316 0.1 0.30529 0.00375789
1.14316 0.1 -0.30529 0.00374958
0.467897 0.1 1.0875 0.00371794
0.467897 0.1 -1.0875 0.00371595
1.1744 0.1 -0.1657 0.00377083
1.1744 0.1 0.1657 0.00377514
1.15704 0.1 -0.268592 0.00375704
1.15704 0.1 0.268592 0.00376451
1.0579 0.1 0.540787 0.00371809
1.0579 0.1 -0.540787 0.00370567
0.796996 0.1 0.88201 0.00368699
1.08012 0.1 -0.496959 0.00371397
1.08012 0.1 0.496959 0.00372607
1.10076 0.1 0.454752 0.00373411
1.10076 0.1 -0.454752 0.00372231
1.11928 0.1 -0.414214 0.00373097
1.11928 0.1 0.414214 0.0037423
1.04168 0.1 -0.58333 0.0036989
1.04168 0.1 0.58333 0.00371188
1.1744 0.1 -0.231981 0.00376548
1.1744 0.1 0.231981 0.00377209
0.871687 0.1 0.821002 0.00368723
0.411108 0.1 1.125 0.00372444
0.411108 0.1 -1.125 0.00372244
1.19808 0.1 1.73472e-17 0.00378561
0.990306 0.1 0.675 0.00369913
0.990306 0.1 -0.675 0.00368649
1.02149 0.1 0.628368 0.00370568
1.02149 0.1 -0.628368 0.00369234
1.19808 0.1 -0.0650961 0.00378403
1.19808 0.1 0.0650961 0.00378596
0 0.1 1.2 0.00375
0 0.1 -1.2 0.00375
0.871687 0.1 -0.825 0.00367865
0.905821 0.1 -0.7875 0.00367891
0.90582 0.1 0.7875 0.00368887
0.835106 0.1 -0.8625 0.00367901
0.835106 0.1 0.8625 0.00368574
0.93886 0.1 -0.75 0.00368141
0.93886 0.1 0.75 0.00369302
1.14316 0.1 -0.373132 0.00374156
1.14316 0.1 0.373132 0.00375276
0.969689 0.1 0.7125 0.00369745
0.969689 0.1 -0.7125 0.00368453
1.15704 0.1 -0.33574 0.00374957
1.15704 0.1 0.33574 0.00375976
0.756813 0.1 0.9375 0.00368757
0.756814 0.1 -0.9375 0.00368336
1.19808 0.1 0.130192 0.00378498
1.19808 0.1 -0.130192 0.00378112
0.797314 0.1 -0.903998 0.00368113
0.714971 0.1 0.975 0.00369081
0.714971 0.1 -0.975 0.00368722
0.150379 0.1 1.2 0.00374749
0.150379 0.1 -1.2 0.00374623
1.20938 0.1 -0.0322656 0.00378844
1.20938 0.1 0.0322656 0.00378946
1.1744 0.1 -0.298261 0.00375862
1.1744 0.1 0.298261 0.00376787
1.20938 0.1 -0.0967968 0.00378626
1.20938 0.1 0.0967968 0.00378919
1.19808 0.1 -0.195288 0.00377651
1.19808 0.1 0.195288 0.00378268
0.350249 0.1 1.1625 0.00373122
0.350249 0.1 -1.1625 0.00372935
0.67013 0.1 1.0125 0.00369453
0.67013 0.1 -1.0125 0.00369164
0 0.1 1.21799 0.00375
0 0.1 -1.21799 0.00375
0.0363518 0.1 -1.21799 0.00375057
0.0363518 0.1 1.21799 0.00375099
1.11928 0.1 -0.48325 0.00372253
1.11928 0.1 0.48325 0.00373663
1.10076 0.1 -0.524714 0.00371402
1.10076 0.1 0.524714 0.00372853
1.20938 0.1 0.161328 0.00378758
1.20938 0.1 -0.161328 0.00378257
1.08012 0.1 0.567953 0.00372058
1.08012 0.1 -0.567953 0.00370541
0.623803 0.1 1.05 0.00369971
0.623803 0.1 -1.05 0.00369691
1.0579 0.1 -0.612892 0.00369713
1.0579 0.1 0.612892 0.00371266
1.15704 0.1 -0.402888 0.00374105
1.15704 0.1 0.402888 0.00375425
1.14316 0.1 0.440974 0.00374706
1.14316 0.1 -0.440974 0.00373288
1.19808 0.1 -0.260384 0.00377023
1.19808 0.1 0.260384 0.00377912
1.2267 0.1 3.57064e-18 0.00379605
1.2267 0.1 -0.0636649 0.00379435
1.2267 0.1 0.0636649 0.00379652
1.1744 0.1 -0.364541 0.00375041
1.1744 0.1 0.364541 0.00376268
0.574156 0.1 1.0875 0.0037053
0.574156 0.1 -1.0875 0.00370268
1.20938 0.1 0.225859 0.00378468
1.20938 0.1 -0.225859 0.00377698
1.04168 0.1 -0.656246 0.00369056
1.04168 0.1 0.656246 0.00370643
1.2267 0.1 -0.12733 0.00379128
1.2267 0.1 0.12733 0.00379567
0.287374 0.1 1.2 0.0037372
0.287374 0.1 -1.2 0.00373545
1.02149 0.1 -0.702294 0.00368438
1.02149 0.1 0.702294 0.00370033
0.075776 0.1 -1.2375 0.00375086
0.075776 0.1 1.2375 0.00375173
0.871399 0.1 0.88201 0.00368424
0.522865 0.1 1.125 0.00371148
0.522865 0.1 -1.125 0.00370891
1.2267 0.1 -0.190994 0.00378649
1.2267 0.1 0.190994 0.00379349
1.19808 0.1 -0.32548 0.00376254
1.19808 0.1 0.32548 0.00377443
0.990306 0.1 -0.75 0.00367921
0.990306 0.1 0.75 0.003694
1.24274 0.1 -0.0314313 0.00380119
1.24274 0.1 0.0314313 0.00380237
1.20938 0.1 -0.29039 0.00376994
1.20938 0.1 0.29039 0.00378055
1.24274 0.1 -0.0942942 0.00379886
1.24274 0.1 0.0942942 0.00380225
0.93886 0.1 0.821002 0.00368842
1.11928 0.1 -0.552285 0.0037134
1.11928 0.1 0.552285 0.00373065
1.15704 0.1 -0.470036 0.00373222
1.15704 0.1 0.470036 0.00374823
0.969689 0.1 -0.7875 0.0036776
0.96969 0.1 0.7875 0.00369229
0.93886 0.1 -0.825 0.00367528
0.90582 0.1 0.8625 0.00368442
0.905821 0.1 -0.8625 0.00367356
1.1744 0.1 -0.430821 0.00374143
1.1744 0.1 0.430821 0.00375682
1.10076 0.1 -0.594676 0.00370456
1.10076 0.1 0.594676 0.00372257
1.14316 0.1 -0.508816 0.00372407
1.14316 0.1 0.508816 0.00374096
1.24274 0.1 -0.157157 0.0037949
1.24274 0.1 0.157157 0.0038008
1.2267 0.1 -0.254659 0.00378005
1.2267 0.1 0.254659 0.00379003
0.467897 0.1 1.1625 0.003718
0.467897 0.1 -1.1625 0.00371562
1.08012 0.1 0.638947 0.00371461
1.08012 0.1 -0.638947 0.00369623
1.25511 0.1 -5.78241e-19 0.0038075
0.835106 0.1 -0.9375 0.00367531
0.835106 0.1 0.9375 0.00368269
0.871687 0.1 -0.903998 0.00367448
1.25511 0.1 0.0622446 0.00380816
1.25511 0.1 -0.0622446 0.00380559
0.219992 0.1 1.2375 0.00374345
0.219992 0.1 -1.2375 0.00374185
0 0.1 -1.25701 0.00375
0 0.1 1.25701 0.00375
0.0363518 0.1 -1.25701 0.00375057
0.0363518 0.1 1.25701 0.00375099
0.797314 0.1 0.975 0.00368405
0.797314 0.1 -0.975 0.00367785
1.19808 0.1 -0.390576 0.00375377
1.19808 0.1 0.390576 0.00376882
1.0579 0.1 -0.684997 0.00368833
1.0579 0.1 0.684997 0.00370676
1.20938 0.1 -0.354921 0.00376155
1.20938 0.1 0.354921 0.00377534
1.25511 0.1 0.124489 0.00380748
1.25511 0.1 -0.124489 0.00380225
1.24274 0.1 -0.220019 0.00378908
1.24274 0.1 0.220019 0.00379802
0.756813 0.1 1.0125 0.00368598
0.756814 0.1 -1.0125 0.00368097
1.2267 0.1 -0.318324 0.00377223
1.2267 0.1 0.318324 0.00378539
0.411108 0.1 1.2 0.00372446
0.411108 0.1 -1.2 0.00372224
1.25511 0.1 -0.186734 0.00379716
1.25511 0.1 0.186734 0.00380544
0.714971 0.1 1.05 0.0036897
0.714971 0.1 -1.05 0.00368535
1.04168 0.1 -0.729162 0.003682
1.04168 0.1 0.729162 0.00370056
1.24274 0.1 0.282882 0.003794
1.24274 0.1 -0.282882 0.00378187
0 0.1 1.275 0.00375
0 0.1 -1.275 0.00375
1.1744 0.1 0.497102 0.00375047
1.1744 0.1 -0.497102 0.00373253
1.15704 0.1 -0.537184 0.0037226
1.15704 0.1 0.537184 0.00374181
1.2756 0.1 -0.03061 0.00381583
1.2756 0.1 0.03061 0.00381729
0.67013 0.1 1.0875 0.00369391
0.67013 0.1 -1.0875 0.00369022
1.2756 0.1 -0.09183 0.00381315
1.2756 0.1 0.09183 0.00381741
1.25511 0.1 -0.248978 0.00379048
1.25511 0.1 0.248978 0.00380209
1.20938 0.1 0.419453 0.00376934
1.20938 0.1 -0.419453 0.00375233
1.11928 0.1 -0.621322 0.00370338
1.11928 0.1 0.621322 0.00372419
1.14316 0.1 -0.576659 0.00371391
1.14316 0.1 0.576659 0.00373452
1.19808 0.1 -0.455673 0.00374463
1.19808 0.1 0.455673 0.00376255
1.02149 0.1 0.776219 0.00369448
1.02149 0.1 -0.776219 0.00367624
0.150379 0.1 1.275 0.00374746
0.150379 0.1 -1.275 0.00374625
1.2756 0.1 -0.15305 0.00380876
1.2756 0.1 0.15305 0.00381615
1.2267 0.1 -0.381989 0.00376329
1.2267 0.1 0.381989 0.00377974
1.10076 0.1 -0.664638 0.00369474
1.10076 0.1 0.664638 0.00371603