# nutMean  POINT_DATA 91129
# x  y  z  nutMean
0 0 0 4.99872e-06
0 0.00368111 0 1.78839e-05
0 0.00749587 0 6.84754e-05
0 0.0114491 0 0.000255001
0 0.0155459 0 0.000669156
0 0.0197915 0 0.00168528
0 0.0241911 0 0.00257656
0 0.0287506 0 0.00298153
0 0.0334755 0 0.00343495
0 0.038372 0 0.00375515
0 0.0434463 0 0.00397883
0 0.0487048 0 0.00415003
0 0.0541543 0 0.0042943
0 0.0598016 0 0.00442604
0 0.0656539 0 0.00455604
0 0.0717187 0 0.00469147
0.075776 0.00184055 0 8.62975e-06
0.075776 0.00558849 0 1.28295e-05
0.075776 0.00947248 -3.46945e-18 6.0659e-05
0.075776 0.0134975 -3.46945e-18 0.000282475
0.075776 0.0176687 3.46945e-18 0.000802222
0 0.0780037 0 0.00483242
0.075776 0.0219913 3.46945e-18 0.00161913
0.075776 0.0264709 3.46945e-18 0.00274507
0.075776 0.031113 -3.46945e-18 0.00415964
0.075776 0.0359237 -3.46945e-18 0.00581686
0 0.0845169 0 0.00497677
0.075776 0.0409092 0 0.00765925
0.075776 0.0460755 -3.46945e-18 0.00962466
0 0.0912666 0 0.0051243
0.075776 0.0514296 -3.46945e-18 0.011651
0.075776 0.0569779 0 0.0136772
0 0.0982613 0 0.00527494
0.075776 0.0627278 0 0.0156412
0.075776 0.0686863 0 0.0164589
0 0.10551 0 0.00542798
0.075776 0.0748612 3.46945e-18 0.0170973
0.075776 0.0812603 -3.46945e-18 0.0178069
0 0.113022 0 0.00558246
0.075776 0.0878918 3.46945e-18 0.0185984
0 0.120806 0 0.00573746
0.075776 0.0947639 3.46945e-18 0.0194846
0.075776 0.101886 -3.46945e-18 0.0204852
0 0.128874 0 0.00589395
0.075776 0.109266 3.46945e-18 0.0216323
0 0.137234 0 0.00606304
0.075776 0.116914 3.46945e-18 0.0229734
0 0.145897 0 0.00626302
0.075776 0.12484 0 0.0245706
0.151552 0 0 0
0.151552 0.00368111 0 7.13086e-06
0.151552 0.00749587 0 2.46185e-05
0.151552 0.0114491 0 0.000107298
0.151552 0.0155459 0 0.000334067
0.151552 0.0197915 0 0.000757201
0.075776 0.133054 0 0.0265115
0.151552 0.0241911 0 0.00139414
0.151552 0.0287506 0 0.00224832
0 0.154876 0 0.00649901
0.151552 0.0334755 0 0.00330617
0.151552 0.038372 0 0.00454351
0.151552 0.0434463 0 0.00593043
0.151552 0.0487048 0 0.00743432
0.075776 0.141566 0 0.0288653
0.151552 0.0541543 0 0.0090213
0.151552 0.0598016 0 0.0106567
0 0.16418 0 0.00676065
0.151552 0.0656539 0 0.0120602
0.151552 0.0717187 0 0.0131971
0.075776 0.150387 0 0.0308107
0.151552 0.0780037 0 0.0143517
0.151552 0.0845169 0 0.0155764
0 0.173822 0 0.00703987
0.075776 0.159528 0 0.0316508
0.151552 0.0912666 0 0.0168642
0.151552 0.0982613 0 0.0182085
0 0.183814 0 0.00733493
0.151552 0.10551 0 0.0196079
0.075776 0.169001 3.46945e-18 0.0319706
0.151552 0.113022 0 0.0210674
0.151552 0.120806 0 0.022597
0 0.194169 0 0.00764467
0.075776 0.178818 3.46945e-18 0.0317438
0.151552 0.128874 0 0.024196
0.075776 0.188992 3.46945e-18 0.0302802
0.151552 0.137234 0 0.0258654
0 0.2049 0 0.00796536
0.151552 0.145897 0 0.0274777
0.075776 0.199535 0 0.0283998
0 0.21602 0 0.00829086
0.151552 0.154876 0 0.0287112
0.219992 0.00184055 0 2.36614e-06
0.219992 0.00558849 0 5.25171e-06
0.219992 0.00947248 -3.46945e-18 2.15996e-05
0.219992 0.0134975 3.46945e-18 7.43467e-05
0.219992 0.0176687 0 0.000209267
0.219992 0.0219913 0 0.000467951
0.219993 0.0264709 -3.46945e-18 0.000865615
0.219992 0.031113 -3.46945e-18 0.00140815
0.219992 0.0359238 3.46945e-18 0.00209873
0.151552 0.16418 0 0.0295038
0.075776 0.21046 0 0.0264827
0.219992 0.0409092 3.46945e-18 0.00293673
0.219992 0.0460755 0 0.00391806
0.219993 0.0514296 -3.46945e-18 0.00503616
0.219992 0.0569779 0 0.00628097
0 0.227544 0 0.00867044
0.219992 0.0627277 3.46945e-18 0.0076429
0.219992 0.0686863 0 0.00911093
0.151552 0.173822 0 0.0299573
0.219992 0.0748612 3.46945e-18 0.0106719
0.075776 0.221782 0 0.0246253
0.219992 0.0812603 3.46945e-18 0.0123075
0.219992 0.0878917 -3.46945e-18 0.0139966
0.151552 0.183814 0 0.0298768
7.47806e-17 0.239487 0 0.00914656
0.219992 0.0947639 3.46945e-18 0.0157117
0.219993 0.101886 3.46945e-18 0.0174254
0.075776 0.233516 0 0.0235143
0.219993 0.109266 0 0.0191119
0.151552 0.194169 0 0.0292931
0.219993 0.116914 0 0.0207421
0 0.251863 0 0.00968683
0.219993 0.12484 0 0.0222825
0.151552 0.2049 0 0.0285027
0.075776 0.245675 0 0.0229641
0.219992 0.133054 3.46945e-18 0.0236262
0.219992 0.141565 0 0.0247385
0.151552 0.21602 0 0.0276254
0 0.264688 0 0.0102689
0.219992 0.150387 3.46945e-18 0.0258585
0.075776 0.258275 3.46945e-18 0.0226171
0.219992 0.159528 -3.46945e-18 0.0269114
0.151552 0.227544 0 0.0268523
0.219992 0.169001 3.46945e-18 0.0278365
0 0.27798 0 0.0108946
0.075776 0.271334 3.46945e-18 0.0224405
0.151552 0.239487 3.70071e-18 0.026306
0.219992 0.178818 3.46945e-18 0.0285695
0.288433 0 0 0
0.288433 0.00368111 0 2.9694e-06
0.288433 0.00749587 0 1.13982e-05
0.288433 0.0114491 0 3.84546e-05
0.288433 0.0155459 3.70071e-18 0.000107663
0.288433 0.0197915 0 0.000255967
0.288433 0.0241911 3.70071e-18 0.000509339
0.288433 0.0287506 0 0.000879073
0.219992 0.188991 0 0.0290876
0.288433 0.0334755 0 0.00137319
0.288433 0.038372 0 0.00199424
0.288433 0.0434463 0 0.00274206
7.47806e-17 0.291753 0 0.0115647
0.288433 0.0487048 0 0.00361418
0.288433 0.0541543 0 0.00460579
0.151552 0.251863 0 0.0258634
0.288433 0.0598016 3.70071e-18 0.00571005
0.075776 0.284866 0 0.0224284
0.288433 0.0656539 3.70071e-18 0.00691865
0.219992 0.199534 0 0.0294118
0.288433 0.0717187 0 0.00822071
0.288433 0.0780037 0 0.00960106
0.288433 0.0845169 0 0.0110397
0.288433 0.0912666 0 0.0123813
0.219992 0.21046 -3.46945e-18 0.0295536
0.288433 0.0982613 0 0.0134014
0.151552 0.264688 3.70071e-18 0.0254388
0 0.306027 0 0.0122922
0.288433 0.10551 0 0.0142598
0.075776 0.29889 3.46945e-18 0.0225556
0.288433 0.113022 0 0.015184
0.219993 0.221782 0 0.0295226
0.288433 0.120806 0 0.0161014
0.288433 0.128874 0 0.0169039
0.151552 0.27798 0 0.0251216
0.288433 0.137234 0 0.0175507
0 0.320819 0 0.0131997
0.219992 0.233515 -3.46945e-18 0.0293208
0.075776 0.313423 -3.46945e-18 0.0228632
0.288433 0.145897 0 0.0181351
0.288433 0.154876 0 0.0187214
0.151552 0.291753 0 0.0249218
0.219993 0.245675 0 0.0289553
0.288433 0.16418 0 0.0192691
0 0.336148 0 0.0146499
0.288433 0.173822 0 0.0197413
0.075776 0.328484 -3.46945e-18 0.0239533
0.219993 0.258275 -3.46945e-18 0.0284468
0.151552 0.306027 0 0.0247268
0.288433 0.183814 0 0.0201137
0.288433 0.194169 0 0.0203843
0.219992 0.271334 3.46945e-18 0.0278057
0.350249 0.00184056 -3.46945e-18 8.85383e-07
0.350249 0.00558849 0 3.49786e-06
0.350249 0.00947248 3.46945e-18 1.5542e-05
0.350249 0.0134975 0 4.37301e-05
0.350249 0.0176687 0 0.000108327
0.350249 0.0219913 0 0.000250474
0.350249 0.0264708 3.46945e-18 0.000476463
0.350249 0.031113 0 0.000803962
0 0.352034 0 0.0160225
0.350249 0.0359238 0 0.00123781
0.075776 0.344091 0 0.027162
0.350249 0.0409091 0 0.00178065
0.350249 0.0460756 3.46945e-18 0.00243353
0.288433 0.2049 0 0.0205604
0.350249 0.0514296 0 0.00319579
0.151552 0.320819 0 0.0246759
0.350249 0.0569779 0 0.00406492
0.350249 0.0627277 3.46945e-18 0.00503536
0.350249 0.0686863 3.46945e-18 0.00609963
0.350249 0.0748612 3.46945e-18 0.00724583
0.350249 0.0812603 0 0.00845644
0.219992 0.284867 0 0.0274008
0.288433 0.21602 0 0.0206463
0.350249 0.0878917 0 0.00970863
0.350249 0.094764 0 0.0104715
0.350249 0.101886 0 0.0104619
0.350249 0.109266 0 0.0106285
0.288433 0.227544 0 0.0206435
0.075776 0.360265 3.46945e-18 0.0275452
0 0.368496 0 0.0163739
0.151552 0.336148 0 0.0252842
0.350249 0.116914 3.46945e-18 0.0109494
0.219992 0.29889 0 0.0269308
0.370854 0.0241911 1.54074e-33 0.000370644
0.350249 0.12484 0 0.0112254
0.350249 0.133054 0 0.011369
0.288433 0.239487 -9.25154e-19 0.0205525
0.350249 0.141566 3.46945e-18 0.0114414
0.350249 0.150387 3.46945e-18 0.0115523
0.288433 0.251863 0 0.0203781
0.219992 0.313423 0 0.0262495
0.151552 0.352034 0 0.0257098
0.075776 0.377027 0 0.0257217
0.350249 0.159528 0 0.0116868
0 0.385557 0 0.015847
0.350249 0.169001 0 0.0118293
0.288433 0.264688 0 0.0201252
0.350249 0.178818 0 0.0119696
0.219992 0.328484 0 0.0254443
0.350249 0.188992 0 0.0121042
0.151552 0.368496 0 0.0248873
0.288433 0.27798 3.70071e-18 0.019882
0.075776 0.394397 0 0.0231566
0.350249 0.199535 0 0.0122315
7.47806e-17 0.403236 0 0.0153156
0.219992 0.344091 0 0.0246192
0.350249 0.21046 -3.46945e-18 0.0123505
0.288433 0.291753 0 0.0196647
0.412065 9.08189e-19 3.08149e-33 2.40291e-22
0.412065 0.00368111 -2.31298e-18 2.09774e-06
0.412065 0.00749587 -2.31298e-18 9.53238e-06
0.412065 0.0114491 -2.31298e-18 2.78377e-05
0.412065 0.0155459 -2.31298e-18 6.66388e-05
0.412065 0.0197915 0 0.000149898
0.412065 0.0241911 -3.08149e-33 0.000301297
0.412065 0.0264709 0 0.000417494
0.412065 0.0287506 -2.31298e-18 0.000533692
0.412065 0.0334755 -2.31298e-18 0.000856601
0.412065 0.038372 -2.31298e-18 0.00127604
0.151552 0.385557 0 0.0232981
0.412065 0.0434463 0 0.00179407
0.350249 0.221782 0 0.0124594
0.412065 0.0487048 0 0.00241108
0.412065 0.0541543 -3.08149e-33 0.00312568
0.412065 0.0569779 0 0.00352988
0.412065 0.0598016 -2.31298e-18 0.00393407
0.412065 0.0656539 -2.31298e-18 0.00482949
0.412065 0.0717187 -2.31298e-18 0.00580178
0.075776 0.412396 -3.46945e-18 0.0223505
0.412065 0.0780037 -2.31298e-18 0.00683567
0.288433 0.306027 0 0.0193672
0.412065 0.0845169 -2.31298e-18 0.00778286
0.350249 0.233516 3.46945e-18 0.012555
0 0.421557 0 0.0152708
0.412065 0.0912666 -2.31298e-18 0.00840201
0.219992 0.360265 3.46945e-18 0.0237633
0.412065 0.0982613 0 0.00861519
0.412065 0.10551 0 0.00868324
0.412065 0.113022 -2.31298e-18 0.00883521
0.350249 0.245675 0 0.012634
0.412065 0.120806 0 0.00901424
0.151552 0.403236 0 0.021934
0.288433 0.320819 0 0.0189773
0.412065 0.128874 -2.31298e-18 0.0091491
0.412065 0.137234 0 0.00923402
0.350249 0.258275 -3.46945e-18 0.0126924
0.219992 0.377026 0 0.0227846
0.412065 0.145897 -2.31298e-18 0.00931195
0.075776 0.431051 0 0.02229
0.412065 0.154876 -2.31298e-18 0.00940524
0 0.440544 0 0.0153986
0.288433 0.336148 0 0.0185433
0.350249 0.271334 0 0.0127241
0.412065 0.16418 -2.31298e-18 0.00950556
0.412065 0.173822 -2.31298e-18 0.00960671
0.151552 0.421557 0 0.0212177
0.412065 0.183814 -2.31298e-18 0.00970525
0.350249 0.284867 3.46945e-18 0.0127244
0.219992 0.394397 0 0.0217024
0.288433 0.352034 3.70071e-18 0.0180891
0.412065 0.194169 0 0.00979985
0.075776 0.450382 0 0.0223417
0.412065 0.2049 -2.31298e-18 0.00988978
0 0.46022 0 0.0155427
0.350249 0.29889 3.46945e-18 0.0126968
0.412065 0.21602 0 0.0099742
0.151552 0.440544 0 0.0207873
0.219993 0.412396 3.46945e-18 0.0206508
0.467897 0.00184056 -3.46945e-18 6.01715e-07
0.467897 0.00558849 0 3.41916e-06
0.288433 0.368496 0 0.0175881
0.467897 0.00947248 0 1.56691e-05
0.467897 0.0134975 0 3.66609e-05
0.467897 0.0176687 3.46945e-18 7.91479e-05
0.467897 0.0219913 -3.46945e-18 0.000165759
0.467897 0.0264709 3.46945e-18 0.000321164
0.467897 0.0311131 3.46945e-18 0.000548038
0.467897 0.0359238 -3.46945e-18 0.000859511
0.467897 0.038372 0 0.00110197
0.467897 0.0409092 3.46945e-18 0.00125872
0.350249 0.313423 0 0.0126445
0.467897 0.0460755 0 0.00174703
0.467897 0.0514296 3.46945e-18 0.00232423
0.412065 0.227544 -2.31298e-18 0.0100517
0.467897 0.0569779 0 0.00298815
0.467897 0.0627277 -3.46945e-18 0.00373373
0.467897 0.0686863 3.46945e-18 0.0045521
0.467897 0.0748612 0 0.00543092
0.467897 0.0812603 0 0.00635096
0.467897 0.0878918 3.46945e-18 0.00679645
0.075776 0.470415 3.46945e-18 0.0224377
0.412065 0.239487 -2.31298e-18 0.0101205
0.467897 0.0947639 -3.46945e-18 0.0068665
0.467897 0.101886 3.46945e-18 0.00691861
0.350249 0.328483 0 0.0125715
0.467897 0.109266 0 0.0069831
0 0.48061 0 0.0156813
0.288433 0.385557 0 0.0170185
0.467897 0.116914 0 0.00705163
0.412065 0.251863 -2.31298e-18 0.0101787
0.219992 0.431051 0 0.0197468
0.467897 0.12484 0 0.00711888
0.151552 0.46022 0 0.0204695
0.467897 0.133054 3.46945e-18 0.00718186
0.467897 0.141566 3.46945e-18 0.00724567
0.412065 0.264688 -2.31298e-18 0.0102239
0.350249 0.344091 -3.46945e-18 0.0124826
0.467897 0.150387 3.46945e-18 0.00731216
0.467897 0.154876 0 0.00787321
0.467897 0.159528 3.46945e-18 0.00737746
0.288433 0.403236 0 0.016416
0.075776 0.491175 0 0.02253
0.412065 0.27798 -2.31298e-18 0.0102538
0.467897 0.169001 0 0.00744166
0.467897 0.178818 3.46945e-18 0.00750468
0.219992 0.450382 0 0.0190028
6.73026e-17 0.501741 3.70071e-18 0.0157753
0.350249 0.360265 0 0.0123788
0.151552 0.48061 0 0.0202152
0.467897 0.188991 0 0.00756625
0.412065 0.291753 0 0.0102683
0.467897 0.199535 0 0.00762615
0.288433 0.421557 0 0.0158464
0.467897 0.21046 0 0.00768411
0.412065 0.306027 0 0.010268
0.350249 0.377027 0 0.012252
0.467897 0.221782 3.46945e-18 0.00773982
0.075776 0.51269 0 0.0225081
0.219993 0.470415 3.46945e-18 0.0183868
0.467897 0.227544 0 0.00837269
0.412065 0.320819 -2.31298e-18 0.0102537
0.467897 0.233515 0 0.00779286
6.73026e-17 0.523639 3.70071e-18 0.0157981
0.523729 0 0 0
0.523729 0.00368111 0 1.96283e-06
0.523729 0.00749587 -2.31298e-18 9.99638e-06
0.523729 0.0114491 0 2.67328e-05
0.523729 0.0155459 0 5.52919e-05
0.523729 0.0197915 -2.31298e-18 0.000109141
0.151552 0.501741 0 0.0199664
0.523729 0.0241911 0 0.000212695
0.523729 0.0287506 0 0.000378977
0.523729 0.0334755 0 0.000613915
0.523729 0.038372 -3.08149e-33 0.0009279
0.523729 0.0434463 0 0.00132339
0.523729 0.0487048 0 0.00180082
0.523729 0.0541543 0 0.0023588
0.288433 0.440544 0 0.0153502
0.523729 0.0598016 0 0.00299344
0.350249 0.394397 -3.46945e-18 0.0120936
0.523729 0.0656539 0 0.00369747
0.467897 0.245675 0 0.00784285
0.523729 0.0717187 0 0.00445962
0.523729 0.0780037 0 0.00520953
0.523729 0.0845169 0 0.00569444
0.523729 0.0912666 0 0.00585901
0.412065 0.336148 0 0.0102269
0.523729 0.0982613 0 0.00592574
0.523729 0.10551 -2.31298e-18 0.00598913
0.467897 0.258275 -3.46945e-18 0.00788962
0.523729 0.113022 0 0.00605319
0.523729 0.120806 -3.08149e-33 0.00611526
0.219993 0.491176 0 0.0178499
0.523729 0.12484 0 0.00614459
0.523729 0.128874 -2.31298e-18 0.00617392
0.075776 0.534986 0 0.0223955
0.467897 0.271334 3.46945e-18 0.00793334
0.350249 0.412396 -3.46945e-18 0.0119076
0.523729 0.137234 0 0.00623011
0.412065 0.352034 -2.31298e-18 0.0101884
0.288433 0.46022 0 0.0149306
0.523729 0.145897 0 0.00628592
0.151552 0.523639 0 0.019693
0.523729 0.154876 -3.08149e-33 0.00634117
0 0.546332 0 0.0157637
0.523729 0.159528 0 0.00636817
0.467897 0.284867 -3.46945e-18 0.00797515
0.523729 0.16418 -2.31298e-18 0.00639516
0.523729 0.173822 0 0.00644801
0.412065 0.368496 0 0.0101362
0.523729 0.183814 0 0.00649972
0.467897 0.29889 0 0.00801419
0.350249 0.431051 -3.46945e-18 0.011711
0.219992 0.51269 0 0.017364
0.523729 0.194169 0 0.00655023
0.288433 0.48061 0 0.0145724
0.523729 0.2049 0 0.00659947
0.467897 0.313423 3.46945e-18 0.00804824
0.075776 0.558091 0 0.0222216
0.412065 0.385557 0 0.0100663
0.523729 0.21602 -3.08149e-33 0.00664733
0.151552 0.546332 0 0.0194056
0 0.569849 0 0.0156861
0.350249 0.450382 3.46945e-18 0.0115225
0.523729 0.227544 -3.08149e-33 0.00669368
0.467897 0.328483 0 0.00807561
0.523729 0.231525 1.54074e-33 0.00670858
0.574156 0.00184056 0 4.52367e-07
0.574156 0.00558849 0 3.38439e-06
0.574157 0.00947248 0 1.7454e-05
0.574156 0.0134975 -3.46945e-18 3.70735e-05
0.574156 0.0176687 -3.46945e-18 6.8629e-05
0.574156 0.0219913 0 0.000124777
0.574156 0.0264708 -3.46945e-18 0.000243119
0.574156 0.031113 0 0.000410888
0.574156 0.0359238 -3.46945e-18 0.000649014
0.574157 0.0409092 0 0.000961567
0.523729 0.239487 3.70071e-18 0.00673838
0.574156 0.0460755 -3.46945e-18 0.00134977
0.574156 0.0514295 0 0.00181307
0.412065 0.403236 0 0.00997705
0.574157 0.0569779 0 0.00234874
0.574156 0.0627277 0 0.00295131
0.574156 0.0686863 0 0.00361115
0.219992 0.534986 0 0.0169212
0.288433 0.501741 0 0.0142568
0.574156 0.0748612 3.46945e-18 0.00431403
0.574156 0.0812603 0 0.00483151
0.467897 0.344091 0 0.00809503
0.574156 0.0878917 3.46945e-18 0.00491397
0.523729 0.251863 0 0.00678135
0.574157 0.0947639 0 0.00498644
0.574156 0.101886 0 0.00505798
0.574156 0.109266 0 0.00512268
0.574156 0.116914 0 0.00518151
0.412065 0.416977 -6.16298e-33 0.00989956
0.350249 0.470415 0 0.0113544
0.523729 0.264688 0 0.00682267
0.075776 0.582034 0 0.0220077
0.574156 0.12484 0 0.00523589
0.574156 0.133054 3.46945e-18 0.00528672
0.412065 0.421557 -2.31298e-18 0.00987373
0.151552 0.569849 0 0.0191165
0.467897 0.360265 -3.46945e-18 0.00810594
0.574157 0.141566 -3.46945e-18 0.00533478
0.523729 0.27798 0 0.00686271
0.574156 0.150386 3.46945e-18 0.00538083
0 0.594219 0 0.0155761
0.574156 0.159528 -3.46945e-18 0.00542536
0.574156 0.16418 0 0.00563051
0.288433 0.523639 1.2326e-32 0.0139729
0.574157 0.169001 0 0.00546865
0.523729 0.291753 0 0.00690145
0.219993 0.558091 3.46945e-18 0.016522
0.467897 0.377026 0 0.00810814
0.574156 0.178818 3.46945e-18 0.0055109
0.412065 0.440544 -2.31298e-18 0.00976615
0.350249 0.491175 0 0.0112103
0.574156 0.188992 3.46945e-18 0.00555223
0.523729 0.306027 -3.08149e-33 0.00693785
0.574157 0.199535 0 0.00559274
0.574157 0.21046 0 0.00563251
0.075776 0.606847 0 0.0217682
0.467897 0.394397 0 0.00810101
0.151552 0.594219 0 0.0188338
0.523729 0.320819 0 0.00697056
0.574157 0.221782 -3.46945e-18 0.00567161
0.412065 0.46022 3.08149e-33 0.00966404
0.288433 0.546332 0 0.0137174
0 0.619475 0 0.0154419
0.574156 0.233515 3.46945e-18 0.00571014
0.350249 0.51269 3.46945e-18 0.0110859
0.219992 0.582034 3.46945e-18 0.0161666
0.523729 0.336148 0 0.00699843
0.467897 0.412396 0 0.00808392
0.574156 0.245675 0 0.00574818
0.624584 0 0 0
0.624584 0.00368111 0 1.89865e-06
0.624584 0.00749587 0 1.1028e-05
0.624584 0.0114491 0 2.87392e-05
0.624584 0.0155459 0 5.3036e-05
0.624584 0.0197915 0 9.15154e-05
0.624584 0.0241911 -2.31298e-18 0.000165204
0.624584 0.0287506 0 0.000291576
0.624584 0.0334755 0 0.000474818
0.624584 0.038372 0 0.000722124
0.624584 0.0434463 -2.31298e-18 0.00103963
0.624584 0.0487048 0 0.00142774
0.624584 0.0541543 0 0.00188468
0.624584 0.0598016 0 0.00240612
0.624584 0.0656539 0 0.0029844
0.624584 0.0717187 0 0.00360735
0.624584 0.0780037 0 0.00410247
0.574157 0.258276 3.46945e-18 0.00578588
0.624584 0.0845169 0 0.00431735
0.523729 0.352034 0 0.0070207
0.624584 0.0912666 0 0.00439464
0.624584 0.0982613 0 0.00446575
0.412065 0.48061 3.08149e-33 0.00957361
0.624584 0.10551 0 0.00453097
0.624584 0.113022 -2.31298e-18 0.00458978
0.574156 0.271334 0 0.00582339
0.624584 0.120806 0 0.00464354
0.467897 0.431051 0 0.00805789
0.075776 0.632561 -3.46945e-18 0.0215127
0.624584 0.128874 0 0.00469329
0.151552 0.619475 0 0.0185615
0.288433 0.569849 0 0.0134892
0.350249 0.534985 0 0.0109771
0.624584 0.137234 -2.31298e-18 0.00473979
0.523729 0.368496 0 0.00703702
0.574156 0.284866 -3.46945e-18 0.00586076
0.624584 0.145897 0 0.0047837
0.467897 0.440544 0 0.00840262
0.624584 0.154876 0 0.00482559
0.219992 0.606847 -3.46945e-18 0.0158522
0 0.645647 0 0.0152896
0.624584 0.16418 -3.08149e-33 0.00486585
0.574156 0.29889 -3.46945e-18 0.00589761
0.624584 0.173822 0 0.00490478
0.412065 0.501741 1.54074e-33 0.00949635
0.467897 0.450382 -3.46945e-18 0.00802665
0.523729 0.385557 0 0.00704711
0.624584 0.183814 0 0.0049426
0.624584 0.194169 0 0.00497948
0.574156 0.313423 0 0.00593319
0.624584 0.2049 0 0.00501556
0.350249 0.558091 3.46945e-18 0.0108811
0.288433 0.594219 0 0.0132875
0.624584 0.21602 0 0.00505097
0.523729 0.403236 0 0.00705057
0.574156 0.328483 -3.46945e-18 0.00596664
0.151552 0.645647 0 0.0183013
0.467897 0.470415 3.46945e-18 0.00799526
0.075776 0.659208 0 0.0212474
0.624584 0.227544 0 0.00508583
0.412065 0.523639 0 0.00943093
0.523729 0.41545 3.08149e-33 0.0070485
0.624584 0.239487 3.70071e-18 0.00512028
0.574156 0.344091 0 0.00599717
0.219992 0.632561 0 0.0155752
0.67013 0.00184055 0 3.48263e-07
0.67013 0.00558849 0 3.41208e-06
0.67013 0.00947248 0 1.97878e-05
0.67013 0.0134975 0 4.04618e-05
0.67013 0.0176687 -3.46945e-18 6.59584e-05
0.67013 0.0219913 0 0.000107333
0.67013 0.0264708 3.46945e-18 0.00018788
0.67013 0.0311131 0 0.000328752
0.67013 0.0359237 0 0.000517364
0.67013 0.0409092 -3.46945e-18 0.000770728
0.67013 0.0460755 0 0.00109064
0.67013 0.0514296 3.46945e-18 0.00147629
0.523729 0.421557 -2.31298e-18 0.00704746
0.67013 0.056978 0 0.00192462
0 0.67277 0 0.015124
0.67013 0.0627277 0 0.00242966
0.624584 0.251863 0 0.00515445
0.67013 0.0686863 0 0.00298179
0.67013 0.0748612 3.46945e-18 0.00356586
0.67013 0.0812603 0 0.0037559
0.67013 0.0878917 0 0.00383582
0.67013 0.0947639 3.46945e-18 0.00391012
0.574156 0.360265 0 0.00602432
0.67013 0.101886 0 0.00397634
0.523729 0.431051 0 0.00704327
0.624584 0.264688 0 0.00518846
0.467897 0.491175 0 0.00796787
0.67013 0.109266 3.46945e-18 0.0040351
0.350249 0.582034 0 0.0107968
0.67013 0.116914 0 0.00408839
0.67013 0.12484 0 0.00413726
0.67013 0.133054 0 0.0041825
0.288433 0.619475 0 0.0131108
0.624584 0.27798 -3.08149e-33 0.00522237
0.412065 0.546332 1.54074e-33 0.00937573
0.523729 0.440544 -3.08149e-33 0.00703909
0.67013 0.141566 3.46945e-18 0.0042247
0.685312 0.0241911 -7.70372e-34 0.000145924
0.685312 0.0434463 -7.70372e-34 0.000912603
0.67013 0.150387 0 0.0042644
0.574156 0.377026 -3.46945e-18 0.00604791
0.67013 0.159528 0 0.00430206
0.624584 0.291753 0 0.00525608
0.151552 0.67277 0 0.0180538
0.075776 0.686823 0 0.0209766
0.67013 0.169001 0 0.00433805
0.67013 0.178818 0 0.00437267
0.467897 0.51269 0 0.00794664
0.685312 0.113022 -7.70372e-34 0.00399222
0.219992 0.659208 0 0.0153316
0.624584 0.306027 0 0.00528923
0.67013 0.188991 0 0.00440619
0.574156 0.394397 3.46945e-18 0.00606782
0.523729 0.46022 0 0.00702817
0.685312 0.137234 -7.70372e-34 0.00413392
0.67013 0.199535 -3.46945e-18 0.0044388
0.350249 0.606847 0 0.0107243
0 0.700877 0 0.0149492
0.624584 0.320819 0 0.00532128
0.67013 0.21046 0 0.00447068
0.412065 0.569849 -2.31298e-18 0.00932954
0.67013 0.221782 -3.46945e-18 0.00450201
0.574157 0.412396 0 0.00608382
0.288433 0.645647 0 0.0129575
0.624584 0.336148 -3.08149e-33 0.00535165
0.67013 0.233515 3.46945e-18 0.00453296
0.467897 0.534986 0 0.00793206
0.523729 0.48061 0 0.00701785
0.624584 0.344091 0 0.00536576
0.67013 0.245675 0 0.00456367
0.715676 4.54095e-19 0 5.08602e-23
0.715676 0.00368111 0 1.87681e-06
0.715676 0.00749587 0 1.22794e-05
0.715676 0.0114491 0 3.19703e-05
0.715676 0.0155459 0 5.48074e-05
0.715676 0.0197915 0 8.48268e-05
0.715676 0.0241911 0 0.000136284
0.715676 0.0287506 0 0.000235194
0.715676 0.0334755 0 0.00038596
0.715676 0.038372 0 0.000586689
0.624584 0.352034 -2.31298e-18 0.00537987
0.715676 0.0434463 0 0.00084909
0.151552 0.700877 0 0.0178189
0.715676 0.0487048 0 0.00117417
0.715676 0.0541543 0 0.00156003
0.574156 0.43105 0 0.00609592
0.715676 0.0598016 0 0.00200199
0.67013 0.258275 0 0.00459428
0.715676 0.0656539 0 0.002492
0.715676 0.0717187 0 0.00299848
0.075776 0.715441 0 0.0207041
0.715676 0.0780037 0 0.00332109
0.715676 0.0845169 0 0.00343274
0.219992 0.686824 0 0.0151173
0.715676 0.0912666 0 0.00350907
0.715676 0.0982613 0 0.00357793
0.67013 0.271334 -3.46945e-18 0.00462487
0.350249 0.632561 -3.46945e-18 0.0106638
0.412065 0.594219 3.08149e-33 0.00929198
0.715676 0.10551 0 0.00363883
0.715676 0.113022 0 0.00369344
0.624584 0.368496 0 0.00540568
0.523729 0.501741 0 0.00701064
0.715676 0.120806 0 0.00374313
0.715676 0.128874 0 0.00378875
0.67013 0.284867 0 0.00465542
0.467897 0.558091 3.46945e-18 0.00792375
0.715676 0.137234 0 0.00383099
0.574156 0.450382 0 0.00610482
0 0.730005 0 0.0147685
0.715676 0.145897 0 0.00387042
0.288433 0.67277 0 0.0128255
0.715676 0.154876 0 0.00390752
0.67013 0.29889 0 0.00468584
0.624584 0.385557 0 0.00542892
0.715676 0.16418 -9.25187e-19 0.0039427
0.715676 0.173822 0 0.00397628
0.715676 0.183814 0 0.00400854
0.67013 0.313423 0 0.00471588
0.523729 0.523639 0 0.00700797
0.715676 0.194169 0 0.00403971
0.574156 0.470415 3.46945e-18 0.00611206
0.624584 0.403236 0 0.00544946
0.743101 0.0241911 -7.70372e-34 0.000130917
0.412065 0.619475 3.08149e-33 0.00926319
0.715676 0.2049 0 0.00406999
0.151552 0.730005 0 0.0175965
0.67013 0.328484 3.46945e-18 0.00474521
0.350249 0.659208 0 0.0106155
0.467897 0.582034 0 0.00792121
0.715676 0.21602 0 0.00409957
0.219992 0.715441 0 0.0149288
0.075776 0.745097 -3.46945e-18 0.020433
0.715676 0.227544 0 0.0041286
0.67013 0.344091 0 0.00477349
0.624584 0.421557 0 0.00546722
0.743101 0.128874 -7.70372e-34 0.00358581
0.715676 0.239487 3.70071e-18 0.00415726
0.574156 0.491175 0 0.00611967
0.756814 0.00184055 0 2.69327e-07
0.523729 0.546332 0 0.0070103
0.756813 0.00558849 0 3.47805e-06
0.756813 0.00947248 0 2.23637e-05
0.756814 0.0134975 -3.46945e-18 4.50605e-05
0.756814 0.0155459 0 5.65906e-05
0.756814 0.0176687 0 6.75695e-05
0.756814 0.0219913 0 9.86535e-05
0.756814 0.0264709 0 0.00015255
0.756814 0.031113 -3.46945e-18 0.000274209
0.756813 0.0359238 -3.46945e-18 0.00042771
0.288433 0.700877 0 0.012713
0.756814 0.0409092 -3.46945e-18 0.000637438
0.756813 0.0460755 3.46945e-18 0.000906774
0.756813 0.0514296 0 0.00123533
0.715676 0.251863 0 0.00418567
0.756813 0.0569779 0 0.00161974
0.756814 0.0627277 -3.46945e-18 0.00205371
0.756814 0.0686863 -3.46945e-18 0.002527
0 0.76019 0 0.0145853
0.756814 0.0748612 0 0.00295034
0.67013 0.360265 3.46945e-18 0.00480042
0.756814 0.0812603 -3.46945e-18 0.00305055
0.756814 0.0878917 -3.46945e-18 0.00312959
0.756814 0.0947639 -3.46945e-18 0.00320176
0.715676 0.264688 0 0.00421393
0.756813 0.101886 0 0.00326465
0.624584 0.440544 0 0.00548241
0.756813 0.109266 3.46945e-18 0.00332054
0.756813 0.116914 3.46945e-18 0.00337117
0.412065 0.645647 0 0.00924349
0.467897 0.606847 0 0.00792441
0.756814 0.120806 0 0.00343947
0.756813 0.12484 0 0.0034173
0.715676 0.27798 0 0.00424209
0.756814 0.133054 -3.46945e-18 0.00345968
0.67013 0.377026 -3.46945e-18 0.00482584
0.756814 0.137234 0 0.00352577
0.574156 0.51269 0 0.00612945
0.756813 0.141566 3.46945e-18 0.00349896
0.685312 0.352034 -7.70372e-34 0.00471196
0.743101 0.2049 -7.70372e-34 0.00386132
0.350249 0.686824 0 0.0105793
0.756814 0.150387 0 0.00353565
0.756814 0.154876 0 0.00360052
0.715676 0.291753 0 0.00427013
0.756814 0.159528 -3.46945e-18 0.00357018
0.523729 0.569849 0 0.00701761
0.72743 0.264688 0 0.00412207
0.756814 0.16418 0 0.00363469
0.151552 0.76019 0 0.0173869
0.756813 0.169001 3.46945e-18 0.00360288
0.624584 0.46022 0 0.00549577
0.219993 0.745097 0 0.0147632
0.67013 0.394396 0 0.00484961
0.756813 0.178818 -3.46945e-18 0.00363406
0.715676 0.306027 0 0.00429796
0.075776 0.775831 0 0.0201661
0.756813 0.188991 0 0.00366396
0.756814 0.199535 0 0.0036928
0.715676 0.320819 0 0.00432537
0.574156 0.534985 0 0.0061426
0.288433 0.730005 0 0.0126182
0.756813 0.21046 0 0.00372079
0.467897 0.632561 0 0.00793362
0.67013 0.412396 -3.46945e-18 0.00487167
0.624584 0.48061 -3.08149e-33 0.00550853
0.756814 0.221782 0 0.00374808
0.412065 0.67277 3.08149e-33 0.00923307
0.715676 0.336148 0 0.00435213
0 0.791472 0 0.0144024
0.756813 0.233516 3.46945e-18 0.00377486
0.523729 0.594219 0 0.00702983
0.624584 0.487654 1.54074e-33 0.00551307
0.756814 0.245675 3.46945e-18 0.00380126
0.350249 0.715441 3.46945e-18 0.0105548
0.67013 0.43105 0 0.00489199
0.715676 0.352034 -9.25187e-19 0.00437801
0.797951 9.08189e-19 -3.08149e-33 8.02482e-23
0.797951 0.00368111 2.31298e-18 1.87065e-06
0.797951 0.00749587 2.31298e-18 1.35894e-05
0.797951 0.0114491 2.31298e-18 3.55733e-05
0.797951 0.0141803 7.70372e-34 5.07736e-05
0.797951 0.0155459 0 5.83738e-05
0.797951 0.0169611 7.70372e-34 6.65721e-05
0.797951 0.0197915 2.31298e-18 8.29686e-05
0.797951 0.0219913 0 0.000101576
0.797951 0.0241911 3.08149e-33 0.000120184
0.797951 0.0264709 0 0.000157477
0.797951 0.0287506 -3.08149e-33 0.00019477
0.797951 0.0334755 2.31298e-18 0.000320565
0.797951 0.038372 2.31298e-18 0.000491301
0.797951 0.0434463 2.31298e-18 0.000711865
0.797951 0.0487048 0 0.000989287
0.756813 0.258275 -3.46945e-18 0.00382739
0.797951 0.0541543 2.31298e-18 0.00132172
0.797951 0.0598016 2.31298e-18 0.00170429
0.797951 0.0656539 2.31298e-18 0.00212846
0.574156 0.55809 0 0.00615967
0.624584 0.501741 0 0.00552215
0.797951 0.0717187 2.31298e-18 0.00252028
0.797951 0.0780037 -3.08149e-33 0.00274105
0.797951 0.0845169 2.31298e-18 0.00283143
0.797951 0.0912666 -3.08149e-33 0.00290766
0.797951 0.0982613 2.31298e-18 0.00297499
0.756813 0.271334 0 0.00385333
0.797951 0.10551 2.31298e-18 0.0030343
0.715676 0.368496 0 0.00440282
0.151552 0.791472 0 0.0171902
0.797951 0.113022 2.31298e-18 0.00308751
0.219992 0.775831 3.46945e-18 0.0146183
0.797951 0.118211 7.70372e-34 0.00311971
0.770526 0.239487 1.54074e-33 0.00373354
0.797951 0.120806 0 0.00313581
0.67013 0.450382 3.46945e-18 0.00491075
0.797951 0.128874 3.08149e-33 0.00317993
0.467897 0.659208 0 0.00794924
0.756813 0.284866 -3.46945e-18 0.00387912
0.743101 0.320819 -7.70372e-34 0.00410558
0.797951 0.137234 0 0.00322056
0.797951 0.141566 0 0.00323942
0.797951 0.145897 -9.25187e-19 0.00325827
0.523729 0.619475 0 0.00704709
0.075776 0.807681 0 0.0199061
0.797951 0.150387 0 0.0032759
0.797951 0.154876 0 0.00329353
0.715676 0.385557 0 0.00442644
0.412065 0.700877 3.08149e-33 0.00923202
0.288433 0.76019 0 0.0125398
0.756813 0.29889 0 0.00390476
0.797951 0.16418 0 0.00332669
0.624584 0.523639 0 0.00553787
0.797951 0.167394 7.70372e-34 0.00333714
0.797951 0.173822 2.31298e-18 0.00335806
0.574156 0.582034 0 0.00618081
0.67013 0.470415 0 0.00492851
0.797951 0.183814 2.31298e-18 0.00338792
0.756813 0.313423 -3.46945e-18 0.00393017
0.797951 0.194169 -9.25187e-19 0.00341649
0.715676 0.403236 0 0.0044488
0.151552 0.807681 0 0.0170987
0.797951 0.197746 -7.70372e-34 0.00342566
0.350249 0.745097 0 0.0105418
0.797951 0.2049 3.08149e-33 0.00344398
0 0.823889 0 0.0142226
0.756813 0.328483 -3.46945e-18 0.00395523
0.797951 0.21046 0 0.00345727
0.797951 0.21602 -3.08149e-33 0.00347057
0.797951 0.223703 7.70372e-34 0.0034878
0.797951 0.227544 9.25187e-19 0.00349642
0.624584 0.546332 0 0.00555655
0.715676 0.421557 0 0.00446988
0.67013 0.491176 -3.46945e-18 0.00494619
0.797951 0.231525 7.70372e-34 0.00350484
0.467897 0.686824 -3.46945e-18 0.00797169
0.523729 0.645647 0 0.00706968
0.756813 0.344091 -3.46945e-18 0.00397979
0.822721 0.120806 7.70372e-34 0.00299036
0.797951 0.239487 -3.08149e-33 0.00352169
0.822721 0.137234 7.70372e-34 0.00307502
0.835106 0.00184056 0 2.08787e-07
0.835106 0.00558849 0 3.52688e-06
0.835106 0.00947248 0 2.49208e-05
0.835106 0.0134975 0 4.97575e-05
0.835107 0.0176687 0 7.08963e-05
0.835106 0.0219913 -3.46945e-18 9.47715e-05