# nutMean  POINT_DATA 63140
# x  y  z  nutMean
0 0.1 0 0.00531165
0 0.1 -0.0179898 0.00531583
0 0.1 0.0179898 0.00530701
0.0363518 0.1 0.0179898 0.0125134
0.0363518 0.1 -0.0179898 0.0126301
0 0.1 -0.0570102 0.00533628
0 0.1 0.0570102 0.00530273
0.0363518 0.1 0.0570102 0.0125091
0.0363518 0.1 -0.0570102 0.0126505
0 0.1 -0.075 0.00535132
0 0.1 0.075 0.0053034
0.075776 0.1 -0.0375 0.0203312
0.075776 0.1 0.0375 0.0201094
0 0.1 -0.0929898 0.00536617
0 0.1 0.0929898 0.00530358
0.0363518 0.1 -0.0929898 0.0121994
0.0363518 0.1 0.0929898 0.0117891
0 0.1 -0.13201 0.00540757
0 0.1 0.13201 0.00531328
0.075776 0.1 -0.1125 0.0193985
0.075776 0.1 0.1125 0.018655
0.0363518 0.1 -0.13201 0.0122408
0.0363518 0.1 0.13201 0.0117988
0 0.1 -0.15 0.00543173
0 0.1 0.15 0.00532206
0.150379 0.1 -2.22623e-17 0.0185639
0 0.1 -0.16799 0.00545671
0 0.1 0.16799 0.00533092
0.150379 0.1 -0.075 0.0182198
0.150379 0.1 0.075 0.0181269
0.0363518 0.1 -0.16799 0.0114489
0.0363518 0.1 0.16799 0.0108278
0.075776 0.1 -0.1875 0.0177818
0.075776 0.1 0.1875 0.016666
0 0.1 -0.20701 0.00550003
0 0.1 0.20701 0.00535083
0.0363518 0.1 -0.20701 0.0114922
0.0363518 0.1 0.20701 0.0108477
0.150379 0.1 -0.15 0.0167674
0.150379 0.1 0.15 0.0166028
0.219993 0.1 -0.0375 0.0169836
0.219993 0.1 0.0375 0.0169597
0 0.1 -0.225 0.00551697
0 0.1 0.225 0.00536068
0 0.1 -0.24299 0.00553562
0 0.1 0.24299 0.00537148
0.0363518 0.1 0.24299 0.00995849
0.0363518 0.1 -0.24299 0.0106448
0.219993 0.1 -0.1125 0.0162804
0.219993 0.1 0.1125 0.0168773
0.150379 0.1 -0.225 0.0151695
0.150379 0.1 0.225 0.0146123
0.075776 0.1 -0.2625 0.0160808
0.075776 0.1 0.2625 0.0148523
0 0.1 -0.28201 0.00556087
0 0.1 0.28201 0.00538746
0.0363518 0.1 -0.28201 0.0106701
0.0363518 0.1 0.28201 0.00997448
0.287374 0.1 -2.89121e-19 0.0136547
0.219992 0.1 0.1875 0.0142836
0.219992 0.1 -0.1875 0.0137327
0.287374 0.1 -0.075 0.0134425
0.287374 0.1 0.075 0.0136089
0 0.1 -0.3 0.00556843
0 0.1 0.3 0.00539268
0 0.1 0.31799 0.00539905
0 0.1 -0.31799 0.00557713
0.0363518 0.1 -0.31799 0.0101632
0.0363518 0.1 0.31799 0.0093364
0.287374 0.1 0.15 0.0128573
0.287374 0.1 -0.15 0.0125144
0.150379 0.1 -0.3 0.0143553
0.150379 0.1 0.3 0.0133738
0.219993 0.1 0.2625 0.0127256
0.219993 0.1 -0.2625 0.0132156
0.075776 0.1 -0.3375 0.0150691
0.075776 0.1 0.3375 0.0135572
0.350249 0.1 -0.0375 0.0104571
0.350249 0.1 0.0375 0.0104717
0 0.1 -0.35701 0.00558238
0 0.1 0.35701 0.00540014
0.0363518 0.1 -0.35701 0.0101684
0.0363518 0.1 0.35701 0.00933749
0.287374 0.1 -0.225 0.0116704
0.287374 0.1 0.225 0.0117021
0.350249 0.1 -0.1125 0.0102856
0.350249 0.1 0.1125 0.0103793
0 0.1 -0.375 0.00558034
0 0.1 0.375 0.00539612
0 0.1 -0.39299 0.00557859
0 0.1 0.39299 0.00539271
0.0363518 0.1 -0.39299 0.00990681
0.0363518 0.1 0.39299 0.00905141
0.350249 0.1 -0.1875 0.00994585
0.350249 0.1 0.1875 0.010096
0.219992 0.1 -0.3375 0.0131527
0.219992 0.1 0.3375 0.0124186
0.150379 0.1 0.375 0.0127356
0.150379 0.1 -0.375 0.0138686
0.411108 0.1 4.33681e-19 0.00864874
0.287374 0.1 -0.3 0.0115496
0.287374 0.1 0.3 0.0111678
0.411108 0.1 -0.075 0.0085996
0.411108 0.1 0.075 0.00863505
0.075776 0.1 -0.4125 0.0145339
0.075776 0.1 0.4125 0.0129756
0 0.1 0.43201 0.00538107
0 0.1 -0.43201 0.0055695
0.0363518 0.1 0.43201 0.00903977
0.0363518 0.1 -0.43201 0.00989773
0.411108 0.1 -0.15 0.00847314
0.411108 0.1 0.15 0.00854749
0.350249 0.1 -0.2625 0.00993825
0.350249 0.1 0.2625 0.00984431
0 0.1 -0.45 0.0055636
0 0.1 0.45 0.00537454
0.219992 0.1 0.4125 0.012026
0.219992 0.1 -0.4125 0.012791
0 0.1 -0.46799 0.00555776
0 0.1 0.46799 0.00536812
0.411108 0.1 -0.225 0.00840598
0.411108 0.1 0.225 0.00841893
0.467897 0.1 -0.0375 0.00690067
0.467897 0.1 0.0375 0.00690895
0.0363518 0.1 0.46799 0.00880239
0.0363518 0.1 -0.46799 0.00962138
0.287374 0.1 -0.375 0.011513
0.287374 0.1 0.375 0.0110071
0.150379 0.1 0.45 0.0127475
0.150379 0.1 -0.45 0.0138043
0.467897 0.1 0.1125 0.00692174
0.467897 0.1 -0.1125 0.0068948
0.350249 0.1 -0.3375 0.0100342
0.350249 0.1 0.3375 0.00979735
0.075776 0.1 -0.4875 0.013973
0.075776 0.1 0.4875 0.0124927
0.467897 0.1 0.1875 0.00692582
0.467897 0.1 -0.1875 0.00689527
0 0.1 -0.50701 0.00553763
0 0.1 0.50701 0.00534808
0.0363518 0.1 -0.50701 0.00960125
0.0363518 0.1 0.50701 0.00878235
0.411108 0.1 0.3 0.0083575
0.411108 0.1 -0.3 0.00846899
0.522865 0.1 1.41031e-17 0.0059539
0 0.1 -0.525 0.00552533
0 0.1 0.525 0.00533628
0.522865 0.1 -0.075 0.00595806
0.522865 0.1 0.075 0.00596295
0.287374 0.1 0.45 0.0113423
0.287374 0.1 -0.45 0.0118032
0.219992 0.1 0.4875 0.0134905
0.219992 0.1 -0.4875 0.0139539
0.467897 0.1 -0.2625 0.00696547
0.467897 0.1 0.2625 0.0069309
0.350249 0.1 -0.4125 0.0101985
0.350249 0.1 0.4125 0.00988646
0 0.1 -0.54299 0.0055126
0 0.1 0.54299 0.00532416
0.522865 0.1 0.15 0.00598151
0.522865 0.1 -0.15 0.00597646
0.0363518 0.1 0.54299 0.00858173
0.0363518 0.1 -0.54299 0.00935048
0.150379 0.1 -0.525 0.0140241
0.150379 0.1 0.525 0.0130511
0.411108 0.1 -0.375 0.0085964
0.411108 0.1 0.375 0.00840705
0.075776 0.1 -0.5625 0.0134621
0.075776 0.1 0.5625 0.0120831
0.522865 0.1 -0.225 0.00602695
0.522865 0.1 0.225 0.0060064
0.574156 0.1 0.0375 0.00503711
0.574157 0.1 -0.0375 0.00504097
0.467897 0.1 -0.3375 0.00705902
0.467897 0.1 0.3375 0.00697241
0 0.1 -0.58201 0.00548555
0 0.1 0.58201 0.00529921
0.0363518 0.1 -0.58201 0.00932343
0.0363518 0.1 0.58201 0.00855678
0.574157 0.1 -0.1125 0.00506699
0.574157 0.1 0.1125 0.00505622
0.287374 0.1 -0.525 0.0123753
0.287374 0.1 0.525 0.0119589
0 0.1 -0.6 0.00547313
0 0.1 0.6 0.00528806
0.350249 0.1 0.4875 0.010091
0.350249 0.1 -0.4875 0.0104129
0.522865 0.1 -0.3 0.00611337
0.522865 0.1 0.3 0.00604955
0.219992 0.1 -0.5625 0.0146812
0.219992 0.1 0.5625 0.0140723
0.574156 0.1 -0.1875 0.00511827
0.574156 0.1 0.1875 0.00509363
0.411108 0.1 0.45 0.00855463
0.411108 0.1 -0.45 0.00877957
0 0.1 -0.61799 0.00545971
0 0.1 0.61799 0.00527621
0.150379 0.1 -0.6 0.0139469
0.150379 0.1 0.6 0.0129505
0.0363518 0.1 -0.61799 0.00909852
0.0363518 0.1 0.61799 0.00838124
0.467897 0.1 -0.4125 0.00721648
0.467897 0.1 0.4125 0.00708566
0.623803 0.1 2.34188e-17 0.00448928
0.623803 0.1 0.075 0.00449487
0.623803 0.1 -0.075 0.00450705
0.574156 0.1 0.2625 0.00514494
0.574156 0.1 -0.2625 0.00519708
0.623803 0.1 0.15 0.00452236
0.623803 0.1 -0.15 0.004548
0.075776 0.1 0.6375 0.011722
0.075776 0.1 -0.6375 0.013001
0.522865 0.1 -0.375 0.00623693
0.522865 0.1 0.375 0.00613125
0 0.1 0.65701 0.00525413
0 0.1 -0.65701 0.00543441
0.0363518 0.1 0.65701 0.00835916
0.0363518 0.1 -0.65701 0.00907322
0.350249 0.1 0.5625 0.0103464
0.350249 0.1 -0.5625 0.0106366
0.623803 0.1 0.225 0.00456733
0.623803 0.1 -0.225 0.00461051
0.287374 0.1 -0.6 0.0126256
0.287374 0.1 0.6 0.0121535
0.574157 0.1 -0.3375 0.00530001
0.574157 0.1 0.3375 0.00521808
0.411108 0.1 0.525 0.00878047
0.411108 0.1 -0.525 0.00899762
0.67013 0.1 0.0375 0.00395433
0.67013 0.1 -0.0375 0.00396327
0.219992 0.1 -0.6375 0.0145782
0.219993 0.1 0.6375 0.0138313
0 0.1 -0.675 0.00542394
0 0.1 0.675 0.00524518
0.467897 0.1 -0.4875 0.00741573
0.467897 0.1 0.4875 0.00727016
0.67013 0.1 -0.1125 0.00399531
0.67013 0.1 0.1125 0.00397053
0.522865 0.1 0.45 0.00626738
0.522865 0.1 -0.45 0.00640552
0.150379 0.1 0.675 0.0126359
0.150379 0.1 -0.675 0.0136501
0.623803 0.1 0.3 0.004631
0.623803 0.1 -0.3 0.00470049
0 0.1 -0.69299 0.00541237
0 0.1 0.69299 0.00523548
0.0363518 0.1 -0.69299 0.00887174
0.0363518 0.1 0.69299 0.00821021
0.67013 0.1 -0.1875 0.00404957
0.67013 0.1 0.1875 0.00400778
0.574156 0.1 0.4125 0.00531677
0.574157 0.1 -0.4125 0.00544067
0.714971 0.1 -2.8382e-17 0.00359762
0.075776 0.1 -0.7125 0.012586
0.075776 0.1 0.7125 0.0114144
0.714971 0.1 -0.075 0.00361875
0.714971 0.1 0.075 0.00359931
0.67013 0.1 0.2625 0.0040616
0.67013 0.1 -0.2625 0.00411546
0.411108 0.1 -0.6 0.00921015
0.411108 0.1 0.6 0.0090252
0.350249 0.1 0.6375 0.0105237
0.350249 0.1 -0.6375 0.0107902
0.623803 0.1 0.375 0.00471513
0.623803 0.1 -0.375 0.00482171
0.714971 0.1 -0.15 0.00366076
0.714971 0.1 0.15 0.00362345
0.467897 0.1 -0.5625 0.00765405
0.467897 0.1 0.5625 0.00753072
0 0.1 -0.73201 0.00539079
0 0.1 0.73201 0.00521801
0.0363518 0.1 0.73201 0.00819274
0.0363518 0.1 -0.73201 0.00885016
0.287374 0.1 -0.675 0.0126189
0.287374 0.1 0.675 0.0120781
0.522865 0.1 -0.525 0.00661329
0.522865 0.1 0.525 0.00646588
0.219993 0.1 -0.7125 0.0143559
0.219992 0.1 0.7125 0.0134791
0.714971 0.1 -0.225 0.00372223
0.714971 0.1 0.225 0.00366634
0 0.1 0.75 0.00521118
0 0.1 -0.75 0.0053818
0.67013 0.1 -0.3375 0.0042278
0.67013 0.1 0.3375 0.00413788
0.574156 0.1 -0.4875 0.00561871
0.574157 0.1 0.4875 0.00546599
0.756813 0.1 0.0375 0.00324197
0.756814 0.1 -0.0375 0.00325403
0.150379 0.1 0.746002 0.0123228
0.150379 0.1 -0.75 0.0133518
0.756813 0.1 -0.1125 0.00328546
0.756813 0.1 0.1125 0.00325365
0 0.1 0.76799 0.00520357
0 0.1 -0.76799 0.00537172
0.0363518 0.1 0.76799 0.00807181
0.0363518 0.1 -0.76799 0.00868003
0.623803 0.1 -0.45 0.00497328
0.623803 0.1 0.45 0.00483118
0.714971 0.1 -0.3 0.00380884
0.714971 0.1 0.3 0.00372773
0.756814 0.1 -0.1875 0.00333581
0.756814 0.1 0.1875 0.00328524
0.67013 0.1 -0.4125 0.00435678
0.67013 0.1 0.4125 0.00422639
0.411108 0.1 0.675 0.00922766
0.411108 0.1 -0.675 0.00939079
0.467897 0.1 0.6375 0.00781628
0.467897 0.1 -0.6375 0.00788867
0.075776 0.1 0.7875 0.0111645
0.075776 0.1 -0.7875 0.0122354
0.350249 0.1 -0.7125 0.0109181
0.350249 0.1 0.7125 0.0106184
0.522865 0.1 -0.6 0.00684872
0.522865 0.1 0.6 0.00671341
0.797314 0.1 -3.59473e-17 0.00299273
0.287374 0.1 0.746002 0.0119837
0.797314 0.1 -0.075 0.00301382
0.797314 0.1 0.075 0.00299159
0.756814 0.1 -0.2625 0.00341108
0.756814 0.1 0.2625 0.0033343
0.287374 0.1 -0.75 0.0125766
0.574156 0.1 -0.5625 0.0058356
0.574156 0.1 0.5625 0.00566778
0 0.1 0.80701 0.00519056
0 0.1 -0.80701 0.00535337
0.714971 0.1 -0.375 0.00392183
0.714971 0.1 0.375 0.0038083
0.0363518 0.1 0.80701 0.00805881
0.0363518 0.1 -0.80701 0.00866168
0.797314 0.1 -0.15 0.00305277
0.797314 0.1 0.15 0.00301087
0.623803 0.1 -0.525 0.00515962
0.623803 0.1 0.525 0.00499212
0.219992 0.1 0.7875 0.013157
0.219992 0.1 -0.7875 0.0141413
0.149792 0.1 0.80701 0.0121269
0 0.1 0.825 0.00518592
0 0.1 -0.825 0.00534594
0.797314 0.1 -0.225 0.00311274
0.797314 0.1 0.225 0.0030482
0.756813 0.1 -0.3375 0.00350418
0.756813 0.1 0.3375 0.0034009
0.67013 0.1 0.4875 0.00435479
0.67013 0.1 -0.4875 0.00451595
0.835106 0.1 -0.0375 0.00275089
0.835106 0.1 0.0375 0.00273869
0.150379 0.1 -0.825 0.0130958
0.835106 0.1 -0.1125 0.0027796
0.835106 0.1 0.1125 0.00274678
0 0.1 -0.84299 0.00533746
0 0.1 0.84299 0.00518046
0.0363518 0.1 -0.84299 0.00852276
0.0363518 0.1 0.84299 0.00796569
0.714971 0.1 -0.45 0.00405967
0.714971 0.1 0.45 0.0039111
0.411108 0.1 0.746002 0.00939745
0.797314 0.1 -0.3 0.00319115
0.797314 0.1 0.3 0.00310203
0.467897 0.1 -0.7125 0.00809036
0.467897 0.1 0.7125 0.0080657
0.522865 0.1 0.675 0.00697616
0.522865 0.1 -0.675 0.007094
0.411108 0.1 -0.75 0.00956825
0.835106 0.1 -0.1875 0.00282499
0.835107 0.1 0.1875 0.00277268
0.286844 0.1 0.80701 0.0118773
0.574156 0.1 0.6375 0.00591247
0.574157 0.1 -0.6375 0.00608783
0.350249 0.1 -0.7875 0.0110412
0.350249 0.1 0.7875 0.0106847
0.756813 0.1 -0.4125 0.00362223
0.756814 0.1 0.4125 0.00349187
0.623803 0.1 -0.6 0.00538107
0.623803 0.1 0.6 0.00519539
0.075776 0.1 0.8625 0.010972
0.075776 0.1 -0.8625 0.011949
0.871687 0.1 -3.2767e-18 0.00255525
0.287374 0.1 -0.825 0.0125424
0.871687 0.1 -0.075 0.00257526
0.871687 0.1 0.075 0.00255233
0.67013 0.1 -0.5625 0.00470798
0.67013 0.1 0.5625 0.00452021
0.835106 0.1 0.2625 0.0028156
0.835106 0.1 -0.2625 0.00289404
0.797314 0.1 -0.375 0.00329019
0.797314 0.1 0.375 0.00317521
0 0.1 -0.88201 0.00532259
0 0.1 0.88201 0.00517198
0.0363518 0.1 0.88201 0.00795721
0.0363518 0.1 -0.88201 0.00850789
0.871687 0.1 0.15 0.00256732
0.871687 0.1 -0.15 0.00261044
0.714971 0.1 0.525 0.00404525
0.714971 0.1 -0.525 0.00422706
0.219993 0.1 0.8625 0.0129116
0.219992 0.1 -0.8625 0.0139612
0 0.1 0.9 0.00516953
0 0.1 -0.9 0.00531691
0.756813 0.1 0.4875 0.00359556
0.756814 0.1 -0.4875 0.00376782
0.871687 0.1 0.225 0.00259884
0.871687 0.1 -0.225 0.00266459
0.835106 0.1 -0.3375 0.0029706
0.835106 0.1 0.3375 0.00287258
0.41063 0.1 0.80701 0.00948994
0.90582 0.1 -0.0375 0.00237681
0.905821 0.1 0.0375 0.00236418
0.522865 0.1 0.746002 0.00723507
0.150379 0.1 0.9 0.0118846
0.90582 0.1 0.1125 0.00236928
0.905821 0.1 -0.1125 0.00240335
0.522865 0.1 -0.75 0.00736022
0.574156 0.1 0.7125 0.00618458
0.574156 0.1 -0.7125 0.00637694
0.797314 0.1 -0.45 0.0034157
0.797314 0.1 0.45 0.00326526
0.467897 0.1 -0.7875 0.0083408
0.467897 0.1 0.7875 0.00826511
0.150379 0.1 -0.903998 0.0129239
0 0.1 0.91799 0.00516624
0 0.1 -0.91799 0.00531018
0.0363518 0.1 0.91799 0.00789105
0.0363518 0.1 -0.91799 0.00839755
0.623803 0.1 0.675 0.0054334
0.623803 0.1 -0.675 0.00563681
0.411108 0.1 -0.825 0.00977317
0.871687 0.1 0.3 0.00264536
0.871687 0.1 -0.3 0.00273287
0.67013 0.1 -0.6375 0.00493346
0.67013 0.1 0.6375 0.00472282
0.90582 0.1 -0.1875 0.00244351
0.90582 0.1 0.1875 0.00239028
0.350249 0.1 0.8625 0.0107613
0.350249 0.1 -0.8625 0.0111623
0.835106 0.1 -0.4125 0.00307944
0.835106 0.1 0.4125 0.00295104
0.714971 0.1 -0.6 0.00442556
0.714971 0.1 0.6 0.00421508
0.93886 0.1 -1.15648e-17 0.00226683
0.075776 0.1 0.9375 0.010835
0.075776 0.1 -0.9375 0.0117214
0.93886 0.1 0.075 0.00226351
0.93886 0.1 -0.075 0.00228515
0.756813 0.1 0.5625 0.00373551
0.756814 0.1 -0.5625 0.00394109
0.905821 0.1 -0.2625 0.00250569
0.905821 0.1 0.2625 0.00242666
0.287374 0.1 0.9 0.0117909
0.287374 0.1 -0.903998 0.0124952
0.871687 0.1 0.375 0.00270796
0.871687 0.1 -0.375 0.00282209
0.93886 0.1 -0.15 0.00231572
0.93886 0.1 0.15 0.00227608
0.797314 0.1 0.525 0.00337822
0.797314 0.1 -0.525 0.00356657
0 0.1 0.95701 0.00516234
0 0.1 -0.95701 0.0052991
0.0363518 0.1 0.95701 0.00788716
0.0363518 0.1 -0.95701 0.00838646
0.522433 0.1 0.80701 0.00742249
0.219992 0.1 0.9375 0.0127266
0.219992 0.1 -0.9375 0.0137983
0.93886 0.1 0.225 0.0023033
0.93886 0.1 -0.225 0.0023627
0.90582 0.1 0.3375 0.00247663
0.905821 0.1 -0.3375 0.00257123
0.835106 0.1 -0.4875 0.00320939
0.835107 0.1 0.4875 0.00303853
0.969689 0.1 -0.0375 0.00217076
0.969689 0.1 0.0375 0.00215985
0.61613 0.1 0.75 0.00569658
0.574156 0.1 -0.7875 0.00669639
0.574156 0.1 0.7875 0.00647428
0 0.1 0.975 0.00516214
0 0.1 -0.975 0.00529532
0.623803 0.1 -0.75 0.00592593
0.969689 0.1 -0.1125 0.00219403
0.969689 0.1 0.1125 0.002165
0.522865 0.1 -0.825 0.00765892
0.67013 0.1 0.7125 0.00495686
0.67013 0.1 -0.7125 0.00519057
0.871687 0.1 -0.45 0.00293899
0.871687 0.1 0.45 0.00278722
0.467897 0.1 0.8625 0.00846918
0.467897 0.1 -0.8625 0.00865999
0.714971 0.1 -0.675 0.00465727
0.714971 0.1 0.675 0.00441763
0.93886 0.1 -0.3 0.00242474
0.93886 0.1 0.3 0.00234426
0.150379 0.1 0.975 0.0117492
0.150379 0.1 -0.975 0.0127143
0.969689 0.1 -0.1875 0.00222649
0.969689 0.1 0.1875 0.00218407
0.411108 0.1 0.9 0.00967266
0.756813 0.1 0.6375 0.00390778
0.756814 0.1 -0.6375 0.00414491
0.990306 0.1 -2.19732e-17 0.00208247
0 0.1 0.99299 0.00516104
0 0.1 -0.99299 0.00529048
0.411108 0.1 -0.903998 0.00993385
0.990306 0.1 -0.075 0.00209881
0.990306 0.1 0.075 0.00207964
0.0363518 0.1 0.99299 0.00784507
0.0363518 0.1 -0.99299 0.00830273
0.90582 0.1 -0.4125 0.00267737
0.905821 0.1 0.4125 0.00254188
0.797314 0.1 -0.6 0.00374524
0.797314 0.1 0.6 0.00352308
0.350249 0.1 0.9375 0.0108546
0.350249 0.1 -0.9375 0.0112936
0.990306 0.1 0.15 0.00209117
0.990306 0.1 -0.15 0.00212572
0.969689 0.1 -0.2625 0.00227978
0.969689 0.1 0.2625 0.00221653
0.835106 0.1 -0.5625 0.00336456
0.835106 0.1 0.5625 0.00315979
0.93886 0.1 -0.375 0.00251248
0.93886 0.1 0.375 0.00239836
0.075776 0.1 1.0125 0.0107478
0.075776 0.1 -1.0125 0.0115486
0.990306 0.1 -0.225 0.00216743
0.990306 0.1 0.225 0.002116
0.287374 0.1 0.975 0.0117678
0.287374 0.1 -0.975 0.0125265
0.871687 0.1 -0.525 0.00307793
0.871687 0.1 0.525 0.00288586
1.02149 0.1 -0.0369628 0.00193069
1.02149 0.1 0.0369628 0.00192172
0.969689 0.1 -0.3375 0.00234701
0.969689 0.1 0.3375 0.00226167
1.02149 0.1 -0.110888 0.00195049
1.02149 0.1 0.110888 0.00192527
0.90582 0.1 0.4875 0.00262791
0.90582 0.1 -0.4875 0.00280017
0.623803 0.1 0.819003 0.00586018
0 0.1 1.03201 0.00516157
0 0.1 -1.03201 0.00528309
0.0363518 0.1 1.03201 0.0078456
0.0363518 0.1 -1.03201 0.00829535
0.67013 0.1 -0.7875 0.0054826
0.67013 0.1 0.7875 0.00521495
0.623803 0.1 -0.825 0.00623811
0.990306 0.1 -0.3 0.00222712
0.990306 0.1 0.3 0.0021537
0.219992 0.1 -1.0125 0.013685
0.219993 0.1 1.0125 0.012596
0.574156 0.1 0.8625 0.00678149
0.574157 0.1 -0.8625 0.0070022
0.714971 0.1 -0.75 0.00492332
0.714971 0.1 0.75 0.00464847
1.02149 0.1 0.184814 0.0019414
1.02149 0.1 -0.184814 0.00197983
0.756814 0.1 -0.7125 0.00438583
0.756814 0.1 0.7125 0.00411005
0.522865 0.1 0.9 0.00774669
0.93886 0.1 -0.45 0.00262622
0.93886 0.1 0.45 0.00246846
1.04168 0.1 0 0.00185124
1.04168 0.1 -0.0729162 0.00186439
1.04168 0.1 0.0729162 0.00184834
0.522865 0.1 -0.903998 0.00790578
0.797314 0.1 -0.675 0.00395546
0.797314 0.1 0.675 0.00369618
0.467897 0.1 0.9375 0.00870088
0.467897 0.1 -0.9375 0.00893657
0 0.1 1.05 0.00516344
0 0.1 -1.05 0.00528102
0.835106 0.1 -0.6375 0.00354751
0.835106 0.1 0.6375 0.00330641
1.04168 0.1 -0.145832 0.00188621
1.04168 0.1 0.145832 0.00185647
1.02149 0.1 -0.25874 0.00202704
1.02149 0.1 0.25874 0.00196941
0.969689 0.1 -0.4125 0.00245895
0.969689 0.1 0.4125 0.00231784
0.411108 0.1 0.975 0.00984018
0.411108 0.1 -0.975 0.0101968
0.871687 0.1 -0.6 0.00324343
0.871687 0.1 0.6 0.00300949
1.0579 0.1 -0.0360525 0.00180121
1.0579 0.1 0.0360525 0.00179302
0.990306 0.1 -0.375 0.00231314
0.990306 0.1 0.375 0.0022033
0.150379 0.1 1.05 0.011664
0.150379 0.1 -1.05 0.0125966
1.0579 0.1 0.108157 0.00179508
1.0579 0.1 -0.108157 0.00181724
1.04168 0.1 -0.218749 0.00192023
1.04168 0.1 0.218749 0.00187514
0.90582 0.1 -0.5625 0.00294818
0.90582 0.1 0.5625 0.00272798
0 0.1 -1.06799 0.00527784
0 0.1 1.06799 0.00516432
0.0363518 0.1 -1.06799 0.00823434
0.0363518 0.1 1.06799 0.00782535
0.350249 0.1 1.0125 0.0109725
0.350249 0.1 -1.0125 0.0114466
1.0579 0.1 -0.180262 0.00184116
1.0579 0.1 0.180262 0.00180607
1.02149 0.1 -0.332665 0.00209323
1.02149 0.1 0.332665 0.00200964
0.93886 0.1 -0.525 0.00275568
0.93886 0.1 0.525 0.00255439
1.08012 0.1 5.49329e-18 0.00173503
1.04168 0.1 -0.291665 0.00197095
1.04168 0.1 0.291665 0.00190451
1.08012 0.1 0.0709941 0.00173228
1.08012 0.1 -0.0709941 0.00174606
0.969689 0.1 -0.4875 0.00257308
0.96969 0.1 0.4875 0.00239103
1.0579 0.1 0.252367 0.0018263
1.0579 0.1 -0.252367 0.00187915
0.990306 0.1 -0.45 0.00242101
0.990306 0.1 0.45 0.002267
0.287374 0.1 -1.05 0.0125564
0.287374 0.1 1.05 0.0117831
0.714971 0.1 0.821002 0.00487618
1.08012 0.1 -0.141988 0.00176389
1.08012 0.1 0.141988 0.00173871
0.075776 0.1 1.0875 0.0107056
0.075776 0.1 -1.0875 0.0114225
0.714971 0.1 -0.825 0.0052252
0.756813 0.1 -0.7875 0.00466036
0.756814 0.1 0.7875 0.00433991
0.67013 0.1 -0.8625 0.00581406
0.67013 0.1 0.8625 0.00549585
0.797314 0.1 -0.75 0.0041994
0.797314 0.1 0.75 0.00389703
0.623803 0.1 0.9 0.00628243
0.835106 0.1 -0.7125 0.00376138
0.835106 0.1 0.7125 0.00347851
0.623803 0.1 -0.903998 0.00651619
0.574156 0.1 0.9375 0.00709912
0.574156 0.1 -0.9375 0.00729619
1.02149 0.1 -0.406591 0.00217987
1.02149 0.1 0.406591 0.00206116
1.08012 0.1 -0.212982 0.00179234
1.08012 0.1 0.212982 0.00175341
1.10076 0.1 -0.0349809 0.00168201
1.10076 0.1 0.0349809 0.00167468
0.871687 0.1 -0.675 0.00343897
0.871687 0.1 0.675 0.00316052
1.04168 0.1 -0.364581 0.00203855
1.04168 0.1 0.364581 0.00194435
1.10076 0.1 -0.104943 0.00169471
1.10076 0.1 0.104943 0.00167755
0.522865 0.1 0.975 0.00800236
0.522865 0.1 -0.975 0.00824617
1.0579 0.1 -0.324472 0.00193284
1.0579 0.1 0.324472 0.0018562
0 0.1 -1.10701 0.00527405
0 0.1 1.10701 0.00516881
0.0363518 0.1 1.10701 0.00782984
0.0363518 0.1 -1.10701 0.00823055
0.90582 0.1 0.6375 0.00285513
0.905821 0.1 -0.6375 0.00312424
0.219992 0.1 1.0875 0.0125173
0.219992 0.1 -1.0875 0.0136236
0.93886 0.1 0.6 0.00266886
0.93886 0.1 -0.6 0.00290726
1.10076 0.1 -0.174905 0.00171445
1.10076 0.1 0.174905 0.00168823
0.467897 0.1 1.0125 0.00892809
0.467897 0.1 -1.0125 0.00922613
1.08012 0.1 -0.283976 0.00183475
1.08012 0.1 0.283976 0.00177684
1.11928 0.1 3.93204e-18 0.00163598
0.990306 0.1 -0.525 0.00253844
0.990306 0.1 0.525 0.00234581
0.96969 0.1 -0.5625 0.00270625
0.969689 0.1 0.5625 0.00247579
1.11928 0.1 -0.0690357 0.00164514
1.11928 0.1 0.0690357 0.0016338
0 0.1 1.125 0.00517247
0 0.1 -1.125 0.0052738
0.411108 0.1 -1.05 0.010416
0.411108 0.1 1.05 0.0100226
1.10076 0.1 0.244866 0.00170669
1.10076 0.1 -0.244866 0.00174838
1.11928 0.1 -0.138072 0.00165972
1.11928 0.1 0.138072 0.00164001
1.02149 0.1 0.480517 0.00212839
1.02149 0.1 -0.480517 0.00228316
1.0579 0.1 -0.396577 0.00200047
1.0579 0.1 0.396577 0.00189542
1.04168 0.1 -0.437497 0.00212406
1.04168 0.1 0.437497 0.00199612
0.150379 0.1 1.125 0.0116241
0.150379 0.1 -1.125 0.0125215
0.714971 0.1 0.88201 0.00489754
1.08012 0.1 0.354971 0.00180906
1.08012 0.1 -0.354971 0.00189014
1.11928 0.1 -0.207107 0.00168436
1.11928 0.1 0.207107 0.00165325
0.350249 0.1 -1.0875 0.0115817
0.350249 0.1 1.0875 0.0111156
0 0.1 1.14299 0.00517503
0 0.1 -1.14299 0.0052724
0.0363518 0.1 1.14299 0.00782491
0.0363518 0.1 -1.14299 0.00818928
1.14316 0.1 -0.0339211 0.00157909
1.14316 0.1 0.0339211 0.00157284
0.797314 0.1 0.821002 0.00411986
1.10076 0.1 -0.314829 0.00179461
1.10076 0.1 0.314829 0.00173387
0.797314 0.1 -0.825 0.00447633
0.756814 0.1 -0.8625 0.00497056
0.756814 0.1 0.8625 0.00459348
1.14316 0.1 -0.101763 0.00158878
1.14316 0.1 0.101763 0.00157517
0.835106 0.1 -0.7875 0.00400848
0.835106 0.1 0.7875 0.00367852
0.871687 0.1 -0.75 0.00365814
0.871687 0.1 0.75 0.00333935
0.67013 0.1 0.9375 0.00580002
0.67013 0.1 -0.9375 0.00617698
0.90582 0.1 -0.7125 0.00333365
0.905821 0.1 0.7125 0.00301383
0.714971 0.1 -0.903998 0.0055192
1.11928 0.1 0.276143 0.00167405
1.11928 0.1 -0.276143 0.00172126
1.14316 0.1 0.169605 0.00158384
1.14316 0.1 -0.169605 0.00160477
0.93886 0.1 -0.675 0.0030776
0.93886 0.1 0.675 0.00281067
1.15704 0.1 0 0.00154566
1.0579 0.1 0.468682 0.00194685
1.0579 0.1 -0.468682 0.00208603
0.623803 0.1 0.975 0.00658074
0.623803 0.1 -0.975 0.00687858
0.990306 0.1 0.6 0.00245739
0.990306 0.1 -0.6 0.00267591
1.15704 0.1 -0.0671479 0.00155322
1.15704 0.1 0.0671479 0.00154372
1.04168 0.1 -0.510414 0.00221539
1.04168 0.1 0.510414 0.00206292
0.969689 0.1 -0.6375 0.00285582
0.969689 0.1 0.6375 0.00262165
1.08012 0.1 0.425965 0.00185078
1.08012 0.1 -0.425965 0.00196094
0.287374 0.1 -1.125 0.0126081
0.287374 0.1 1.125 0.0118321
1.02149 0.1 -0.554443 0.00238748
1.02149 0.1 0.554443 0.0022129
0.574156 0.1 1.0125 0.00734901
0.574156 0.1 -1.0125 0.00760226
1.15704 0.1 -0.134296 0.00156478
1.15704 0.1 0.134296 0.00154916
0.075776 0.1 1.1625 0.0106951
0.075776 0.1 -1.1625 0.0113371
1.10076 0.1 -0.384791 0.00185159
1.10076 0.1 0.384791 0.00176911
1.14316 0.1 -0.237448 0.00163258
1.14316 0.1 0.237448 0.00159856
1.11928 0.1 -0.345179 0.00176892
1.11928 0.1 0.345179 0.00170271
0.522865 0.1 1.05 0.00823579
0.522865 0.1 -1.05 0.00855085
1.15704 0.1 -0.201444 0.00158517
1.15704 0.1 0.201444 0.00156019
1.1744 0.1 -0.0331401 0.00151349
1.1744 0.1 0.0331401 0.00150734
1.1744 0.1 -0.0994202 0.00152111
1.1744 0.1 0.0994202 0.00150993
0 0.1 1.18201 0.00518293
0 0.1 -1.18201 0.005272
0.0363518 0.1 1.18201 0.00783281
0.0363518 0.1 -1.18201 0.00818888
0.219992 0.1 1.1625 0.0124905
0.219993 0.1 -1.1625 0.0135933
1.14316 0.1 0.30529 0.00162045
1.14316 0.1 -0.30529 0.0016701
0.467897 0.1 1.0875 0.00917352
0.467897 0.1 -1.0875 0.00952989
1.1744 0.1 -0.1657 0.00153443
1.1744 0.1 0.1657 0.00151767
1.15704 0.1 -0.268592 0.00161571
1.15704 0.1 0.268592 0.00157734
1.0579 0.1 0.540787 0.00201379
1.0579 0.1 -0.540787 0.00216577
0.796996 0.1 0.88201 0.00431409
1.08012 0.1 -0.496959 0.00203579
1.08012 0.1 0.496959 0.0019049
1.10076 0.1 0.454752 0.00181348
1.10076 0.1 -0.454752 0.00192628
1.11928 0.1 -0.414214 0.00183014
1.11928 0.1 0.414214 0.0017393
1.04168 0.1 -0.58333 0.00232441
1.04168 0.1 0.58333 0.00214887
1.1744 0.1 -0.231981 0.00155842
1.1744 0.1 0.231981 0.00153032
0.871687 0.1 0.821002 0.00354185
0.411108 0.1 1.125 0.0102237
0.411108 0.1 -1.125 0.0105958
1.19808 0.1 1.73472e-17 0.00145916
0.990306 0.1 0.675 0.00258956
0.990306 0.1 -0.675 0.00282984
1.02149 0.1 0.628368 0.00232659
1.02149 0.1 -0.628368 0.00253132
1.19808 0.1 -0.0650961 0.0014655
1.19808 0.1 0.0650961 0.00145739
0 0.1 1.2 0.0051882
0 0.1 -1.2 0.00527324
0.871687 0.1 -0.825 0.00390789
0.905821 0.1 -0.7875 0.00354046
0.90582 0.1 0.7875 0.00319874
0.835106 0.1 -0.8625 0.00428516
0.835106 0.1 0.8625 0.0039059
0.93886 0.1 -0.75 0.00326943
0.93886 0.1 0.75 0.00296756
1.14316 0.1 -0.373132 0.00171753
1.14316 0.1 0.373132 0.00164938
0.969689 0.1 0.7125 0.00275722
0.969689 0.1 -0.7125 0.00300325
1.15704 0.1 -0.33574 0.00165497
1.15704 0.1 0.33574 0.00160129
0.756813 0.1 0.9375 0.00487123
0.756814 0.1 -0.9375 0.00532138
1.19808 0.1 0.130192 0.00146228
1.19808 0.1 -0.130192 0.0014749
0.797314 0.1 -0.903998 0.00474849
0.714971 0.1 0.975 0.00548462
0.714971 0.1 -0.975 0.00590451
0.150379 0.1 1.2 0.0116239
0.150379 0.1 -1.2 0.0124802
1.20938 0.1 -0.0322656 0.00144166
1.20938 0.1 0.0322656 0.00143562
1.1744 0.1 -0.298261 0.00158998
1.1744 0.1 0.298261 0.00154904
1.20938 0.1 -0.0967968 0.0014477
1.20938 0.1 0.0967968 0.00143827
1.19808 0.1 -0.195288 0.00149183
1.19808 0.1 0.195288 0.00147165
0.350249 0.1 1.1625 0.0112681
0.350249 0.1 -1.1625 0.0117401
0.67013 0.1 1.0125 0.00612209
0.67013 0.1 -1.0125 0.00648589
0 0.1 1.21799 0.00519229
0 0.1 -1.21799 0.00527327
0.0363518 0.1 -1.21799 0.00816359
0.0363518 0.1 1.21799 0.00784217
1.11928 0.1 -0.48325 0.00189592
1.11928 0.1 0.48325 0.00178633
1.10076 0.1 -0.524714 0.00199071
1.10076 0.1 0.524714 0.00187094
1.20938 0.1 0.161328 0.00144525
1.20938 0.1 -0.161328 0.00145949
1.08012 0.1 0.567953 0.00197276
1.08012 0.1 -0.567953 0.00212517
0.623803 0.1 1.05 0.00684815
0.623803 0.1 -1.05 0.00719151
1.0579 0.1 -0.612892 0.00228191
1.0579 0.1 0.612892 0.00209702
1.15704 0.1 -0.402888 0.00170571
1.15704 0.1 0.402888 0.00163183
1.14316 0.1 0.440974 0.00168561
1.14316 0.1 -0.440974 0.00177856
1.19808 0.1 -0.260384 0.00151657
1.19808 0.1 0.260384 0.00148582
1.2267 0.1 3.57064e-18 0.00140575
1.2267 0.1 -0.0636649 0.0014116
1.2267 0.1 0.0636649 0.00140393
1.1744 0.1 -0.364541 0.00162958
1.1744 0.1 0.364541 0.00157429
0.574156 0.1 1.0875 0.0075695
0.574156 0.1 -1.0875 0.0079354
1.20938 0.1 0.225859 0.00145639
1.20938 0.1 -0.225859 0.00148003
1.04168 0.1 -0.656246 0.00246794
1.04168 0.1 0.656246 0.00225237
1.2267 0.1 -0.12733 0.00142018
1.2267 0.1 0.12733 0.00140845
0.287374 0.1 1.2 0.0119129
0.287374 0.1 -1.2 0.0126918
1.02149 0.1 -0.702294 0.0027034
1.02149 0.1 0.702294 0.00244066
0.075776 0.1 -1.2375 0.0112847
0.075776 0.1 1.2375 0.010714
0.871399 0.1 0.88201 0.00372139
0.522865 0.1 1.125 0.00848199
0.522865 0.1 -1.125 0.00877519
1.2267 0.1 -0.190994 0.00143553
1.2267 0.1 0.190994 0.00141701
1.19808 0.1 -0.32548 0.00154801
1.19808 0.1 0.32548 0.00150573
0.990306 0.1 -0.75 0.003013
0.990306 0.1 0.75 0.00272954
1.24274 0.1 -0.0314313 0.00137807
1.24274 0.1 0.0314313 0.00137197
1.20938 0.1 -0.29039 0.00150638
1.20938 0.1 0.29039 0.00147242
1.24274 0.1 -0.0942942 0.00138314
1.24274 0.1 0.0942942 0.00137438
0.93886 0.1 0.821002 0.00313838
1.11928 0.1 -0.552285 0.00197373
1.11928 0.1 0.552285 0.00184459
1.15704 0.1 -0.470036 0.00176183
1.15704 0.1 0.470036 0.0016708
0.969689 0.1 -0.7875 0.00320764
0.96969 0.1 0.7875 0.00290632
0.93886 0.1 -0.825 0.00349744
0.90582 0.1 0.8625 0.00341997
0.905821 0.1 -0.8625 0.00380933
1.1744 0.1 -0.430821 0.0016818
1.1744 0.1 0.430821 0.00160515
1.10076 0.1 -0.594676 0.00209425
1.10076 0.1 0.594676 0.00193893
1.14316 0.1 -0.508816 0.00183778
1.14316 0.1 0.508816 0.00173298
1.24274 0.1 -0.157157 0.0013944
1.24274 0.1 0.157157 0.0013806
1.2267 0.1 -0.254659 0.00145731
1.2267 0.1 0.254659 0.0014298
0.467897 0.1 1.1625 0.0094413
0.467897 0.1 -1.1625 0.00965209
1.08012 0.1 0.638947 0.0020581
1.08012 0.1 -0.638947 0.00224552
1.25511 0.1 -5.78241e-19 0.00135216
0.835106 0.1 -0.9375 0.00460007
0.835106 0.1 0.9375 0.00415822
0.871687 0.1 -0.903998 0.00416355
1.25511 0.1 0.0622446 0.00134991
1.25511 0.1 -0.0622446 0.00135795
0.219992 0.1 1.2375 0.0125084
0.219992 0.1 -1.2375 0.013594
0 0.1 -1.25701 0.00527594
0 0.1 1.25701 0.00520325
0.0363518 0.1 -1.25701 0.00816626
0.0363518 0.1 1.25701 0.00785313
0.797314 0.1 0.975 0.00465698
0.797314 0.1 -0.975 0.00513369
1.19808 0.1 -0.390576 0.00158879
1.19808 0.1 0.390576 0.00153123
1.0579 0.1 -0.684997 0.00242615
1.0579 0.1 0.684997 0.00219906
1.20938 0.1 -0.354921 0.00153947
1.20938 0.1 0.354921 0.0014945
1.25511 0.1 0.124489 0.00135381
1.25511 0.1 -0.124489 0.00136632
1.24274 0.1 -0.220019 0.00141224
1.24274 0.1 0.220019 0.00139065
0.756813 0.1 1.0125 0.00517598
0.756814 0.1 -1.0125 0.00566507
1.2267 0.1 -0.318324 0.00148487
1.2267 0.1 0.318324 0.00144773
0.411108 0.1 1.2 0.0104141
0.411108 0.1 -1.2 0.0107302
1.25511 0.1 -0.186734 0.00138079
1.25511 0.1 0.186734 0.00136151
0.714971 0.1 1.05 0.0057891
0.714971 0.1 -1.05 0.00622405
1.04168 0.1 -0.729162 0.00264061
1.04168 0.1 0.729162 0.00236556
1.24274 0.1 0.282882 0.00140479
1.24274 0.1 -0.282882 0.00143479
0 0.1 1.275 0.00521
0 0.1 -1.275 0.00527873
1.1744 0.1 0.497102 0.00164529
1.1744 0.1 -0.497102 0.00173219
1.15704 0.1 -0.537184 0.00182769
1.15704 0.1 0.537184 0.00171939
1.2756 0.1 -0.03061 0.00131554
1.2756 0.1 0.03061 0.0013094
0.67013 0.1 1.0875 0.00640276
0.67013 0.1 -1.0875 0.0068032
1.2756 0.1 -0.09183 0.00132125
1.2756 0.1 0.09183 0.00131075
1.25511 0.1 -0.248978 0.00140041
1.25511 0.1 0.248978 0.00137313
1.20938 0.1 0.419453 0.00152133
1.20938 0.1 -0.419453 0.00158398
1.11928 0.1 -0.621322 0.00207821
1.11928 0.1 0.621322 0.00191793
1.14316 0.1 -0.576659 0.00192056
1.14316 0.1 0.576659 0.0017896
1.19808 0.1 -0.455673 0.00163678
1.19808 0.1 0.455673 0.00156295
1.02149 0.1 0.776219 0.00258549
1.02149 0.1 -0.776219 0.00290939
0.150379 0.1 1.275 0.0116603
0.150379 0.1 -1.275 0.0124693
1.2756 0.1 -0.15305 0.00133239
1.2756 0.1 0.15305 0.00131596