# nutMean  POINT_DATA 63840
# x  y  z  nutMean
0 0.5 3.39583e-17 0.0157676
0 0.5 -0.00617931 0.0157983
0 0.5 0.00617931 0.0157432
0.0124865 0.5 -0.00617931 0.0169239
0.0124865 0.5 0.00617931 0.0168528
0 0.5 -0.0688207 0.0159876
0 0.5 0.0688207 0.0153956
0.0124865 0.5 -0.0688207 0.0171132
0.0124865 0.5 0.0688207 0.0165052
0 0.5 -0.075 0.0159943
0 0.5 0.075 0.0153512
0 0.5 -0.0811793 0.0160078
0 0.5 0.0811793 0.0153128
0.0124865 0.5 -0.0811793 0.0171219
0.0124865 0.5 0.0811793 0.016387
0.075776 0.5 -0.0375 0.0227359
0.075776 0.5 0.0375 0.0223061
0.075776 0.5 -0.1125 0.0227851
0.075776 0.5 0.1125 0.0215954
0 0.5 -0.143821 0.0160958
0 0.5 0.143821 0.0148634
0.0124865 0.5 -0.143821 0.0172099
0.0124865 0.5 0.143821 0.0159376
0 0.5 -0.15 0.0160997
0 0.5 0.15 0.0148128
0.151149 0.5 -0.00137318 0.0200091
0 0.5 -0.156179 0.0161106
0 0.5 0.156179 0.0147678
0.0124865 0.5 -0.156179 0.0172591
0.0124865 0.5 0.156179 0.0157986
0.151149 0.5 0.075 0.0196667
0.151149 0.5 -0.075 0.0201743
0.075776 0.5 -0.1875 0.0230799
0.075776 0.5 0.1875 0.0207598
0.151149 0.5 0.15 0.0191689
0.151149 0.5 -0.15 0.020286
0 0.5 -0.218821 0.016049
0 0.5 0.218821 0.0142761
0.0124865 0.5 -0.218821 0.0171974
0.0124865 0.5 0.218821 0.0153069
0.219992 0.5 0.0375 0.0175731
0.219993 0.5 -0.0375 0.0177281
0 0.5 -0.225 0.0160255
0 0.5 0.225 0.0142242
0 0.5 -0.231179 0.016009
0 0.5 0.231179 0.0141766
0.0124865 0.5 -0.231179 0.0171323
0.0124865 0.5 0.231179 0.0151607
0.219992 0.5 0.1125 0.0174993
0.219993 0.5 -0.1125 0.0177952
0.151149 0.5 -0.225 0.0202459
0.151149 0.5 0.225 0.018534
0.075776 0.5 -0.2625 0.0226937
0.075776 0.5 0.2625 0.0198803
0.288069 0.5 -0.00137318 0.0143218
0.219992 0.5 0.1875 0.017092
0.219993 0.5 -0.1875 0.017839
0 0.5 0.293821 0.0136834
0 0.5 -0.293821 0.0157556
0.0124865 0.5 -0.293821 0.0168789
0.0124865 0.5 0.293821 0.0146674
0.288069 0.5 -0.075 0.014361
0.288069 0.5 0.075 0.014248
0 0.5 -0.3 0.0157219
0 0.5 0.3 0.0136343
0 0.5 0.306179 0.0135873
0 0.5 -0.306179 0.0156942
0.0124865 0.5 -0.306179 0.0167833
0.0124865 0.5 0.306179 0.0145252
0.288069 0.5 -0.15 0.0144052
0.288069 0.5 0.15 0.0141518
0.151149 0.5 -0.3 0.0199142
0.151149 0.5 0.3 0.0178796
0.219992 0.5 -0.2625 0.0177255
0.219992 0.5 0.2625 0.0166443
0.075776 0.5 0.3375 0.019025
0.075776 0.5 -0.3375 0.0221219
0.350249 0.5 -0.0375 0.0111567
0.350249 0.5 0.0375 0.0111618
0.288069 0.5 -0.225 0.0144349
0.288069 0.5 0.225 0.0139664
0.350249 0.5 0.1125 0.0111722
0.350249 0.5 -0.1125 0.0111924
0 0.5 0.368821 0.0131225
0 0.5 -0.368821 0.0153494
0.0124865 0.5 -0.368821 0.0164384
0.0124865 0.5 0.368821 0.0140604
0 0.5 -0.375 0.0153094
0 0.5 0.375 0.0130787
0 0.5 -0.381179 0.0152734
0 0.5 0.381179 0.0130344
0.0124865 0.5 -0.381179 0.0163227
0.0124865 0.5 0.381179 0.0139292
0.350249 0.5 -0.1875 0.0112237
0.350249 0.5 0.1875 0.0112399
0.219992 0.5 -0.3375 0.0174501
0.219992 0.5 0.3375 0.0161799
0.151149 0.5 -0.375 0.0194552
0.151149 0.5 0.375 0.0172436
0.411736 0.5 -0.00137318 0.00952276
0.288069 0.5 -0.3 0.0143963
0.288069 0.5 0.3 0.0137558
0.411736 0.5 -0.075 0.00952421
0.411736 0.5 0.075 0.00952704
0.075776 0.5 -0.4125 0.0214294
0.075776 0.5 0.4125 0.0182362
0.350249 0.5 -0.2625 0.0113729
0.350249 0.5 0.2625 0.0112549
0.411736 0.5 -0.15 0.00956658
0.411736 0.5 0.15 0.0095739
0 0.5 -0.443821 0.0148777
0 0.5 0.443821 0.0126213
0.0124865 0.5 -0.443821 0.0159271
0.0124865 0.5 0.443821 0.0135161
0 0.5 -0.45 0.0148364
0 0.5 0.45 0.0125849
0 0.5 -0.456179 0.0147962
0 0.5 0.456179 0.0125473
0.0124865 0.5 -0.456179 0.0158047
0.0124865 0.5 0.456179 0.0134064
0.219992 0.5 -0.4125 0.0171297
0.219993 0.5 0.4125 0.0157186
0.411736 0.5 -0.225 0.00966154
0.411736 0.5 0.225 0.00963558
0.467897 0.5 0.0375 0.0079625
0.467897 0.5 -0.0375 0.00795582
0.288069 0.5 -0.375 0.0142934
0.288069 0.5 0.375 0.0135475
0.151149 0.5 -0.45 0.0189439
0.151149 0.5 0.45 0.0166589
0.467897 0.5 -0.1125 0.00798688
0.467897 0.5 0.1125 0.00800545
0.350249 0.5 0.3375 0.0112788
0.350249 0.5 -0.3375 0.0114386
0.075776 0.5 -0.4875 0.0206974
0.075776 0.5 0.4875 0.0175631
0.467897 0.5 -0.1875 0.00805724
0.467897 0.5 0.1875 0.0080709
0.411736 0.5 -0.3 0.00977784
0.411736 0.5 0.3 0.00969883
0 0.5 -0.518821 0.014392
0 0.5 0.518821 0.0121966
0.0124865 0.5 0.518821 0.0130558
0.0124865 0.5 -0.518821 0.0154005
0.523432 0.5 -0.00137318 0.00702247
0 0.5 -0.525 0.0143532
0 0.5 0.525 0.0121658
0.523432 0.5 -0.075 0.00703025
0.523432 0.5 0.075 0.0070376
0 0.5 -0.531179 0.0143129
0 0.5 0.531179 0.0121348
0.0124865 0.5 -0.531179 0.0152829
0.0124865 0.5 0.531179 0.0129643
0.288069 0.5 -0.45 0.0141915
0.288069 0.5 0.45 0.0133524
0.219992 0.5 -0.4875 0.0168015
0.219993 0.5 0.4875 0.0152828
0.467897 0.5 -0.2625 0.00818568
0.467897 0.5 0.2625 0.00816709
0.350249 0.5 -0.4125 0.0115324
0.350249 0.5 0.4125 0.0113153
0.523432 0.5 -0.15 0.00708143
0.523432 0.5 0.15 0.00709101
0.151149 0.5 -0.525 0.0184311
0.151149 0.5 0.525 0.016146
0.411736 0.5 -0.375 0.00988971
0.411736 0.5 0.375 0.00977709
0.075776 0.5 -0.5625 0.0199916
0.075776 0.5 0.5625 0.0169972
0.523432 0.5 -0.225 0.00716885
0.523432 0.5 0.225 0.00717147
0.574156 0.5 -0.0375 0.00612378
0.574156 0.5 0.0375 0.00612358
0.467897 0.5 0.3375 0.00827988
0.467897 0.5 -0.3375 0.00830653
0.574156 0.5 -0.1125 0.00615793
0.574156 0.5 0.1125 0.00616288
0 0.5 -0.593821 0.0139362
0 0.5 0.593821 0.0118498
0.0124865 0.5 -0.593821 0.0149062
0.0124865 0.5 0.593821 0.0126792
0.288069 0.5 -0.525 0.0141047
0.288069 0.5 0.525 0.0131805
0 0.5 -0.6 0.013903
0 0.5 0.6 0.0118252
0.350249 0.5 -0.4875 0.0116517
0.350249 0.5 0.4875 0.0113635
0.523432 0.5 -0.3 0.00729003
0.523432 0.5 0.3 0.00727558
0.219992 0.5 -0.5625 0.0164875
0.219992 0.5 0.5625 0.0148917
0.574156 0.5 -0.1875 0.00622702
0.574156 0.5 0.1875 0.00622892
0 0.5 -0.606179 0.0138676
0 0.5 0.606179 0.0118005
0.0124865 0.5 -0.606179 0.0148063
0.0124865 0.5 0.606179 0.0126061
0.411736 0.5 -0.45 0.0100344
0.411736 0.5 0.45 0.00987293
0.151149 0.5 -0.6 0.017958
0.151149 0.5 0.6 0.0157149
0.62168 0.5 2.64545e-17 0.00555972
0.467897 0.5 0.4125 0.00841403
0.467897 0.5 -0.4125 0.00846986
0.624316 0.5 0.0729402 0.00553962
0.624316 0.5 -0.075 0.00554184
0.574156 0.5 -0.2625 0.0063101
0.574157 0.5 0.2625 0.00632314
0.075776 0.5 -0.6375 0.0193758
0.075776 0.5 0.6375 0.0165532
0.624316 0.5 -0.15 0.0055915
0.624316 0.5 0.15 0.00558817
0.523432 0.5 -0.375 0.00744125
0.523432 0.5 0.375 0.00740077
0.350249 0.5 -0.5625 0.0117976
0.350249 0.5 0.5625 0.0114241
0.624316 0.5 -0.225 0.00566844
0.624316 0.5 0.225 0.00566341
0.288069 0.5 0.6 0.0130402
0.288069 0.5 -0.6 0.0140429
0.574156 0.5 -0.3375 0.00646285
0.574156 0.5 0.3375 0.00643645
0.411736 0.5 -0.525 0.01021
0.411736 0.5 0.525 0.0099863
0 0.5 -0.668821 0.0135372
0 0.5 0.668821 0.0115829
0.0124865 0.5 -0.668821 0.0144759
0.0124865 0.5 0.668821 0.0123885
0.67013 0.5 0.0375 0.0049513
0.67013 0.5 -0.0375 0.00495639
0.219993 0.5 -0.6375 0.0162053
0.219993 0.5 0.6375 0.0145583
0 0.5 -0.675 0.0135083
0 0.5 0.675 0.0115653
0.467897 0.5 0.4875 0.0085722
0.467897 0.5 -0.4875 0.00866766
0.67013 0.5 -0.1125 0.00498995
0.67013 0.5 0.1125 0.00498191
0 0.5 -0.681179 0.0134785
0 0.5 0.681179 0.0115467
0.0124865 0.5 -0.681179 0.0143913
0.0124865 0.5 0.681179 0.0123347
0.523432 0.5 -0.45 0.00762347
0.523432 0.5 0.45 0.00755084
0.151149 0.5 -0.675 0.0175485
0.151149 0.5 0.675 0.0153723
0.624316 0.5 -0.3 0.00578239
0.624316 0.5 0.3 0.00576408
0.67013 0.5 0.1875 0.00504058
0.67013 0.5 -0.1875 0.00505197
0.574156 0.5 -0.4125 0.00662979
0.574157 0.5 0.4125 0.00657678
0.708171 0.5 1.88651e-17 0.00461157
0.075776 0.5 -0.7125 0.0188486
0.075776 0.5 0.7125 0.0162245
0.715434 0.5 0.0736268 0.00456525
0.715434 0.5 -0.075 0.00456558
0.67013 0.5 0.2625 0.00512311
0.67013 0.5 -0.2625 0.00514542
0.350249 0.5 -0.6375 0.0119709
0.350249 0.5 0.6375 0.011499
0.411736 0.5 -0.6 0.0104174
0.411736 0.5 0.6 0.0101169
0.624316 0.5 -0.375 0.00593228
0.624316 0.5 0.375 0.00588487
0.715434 0.5 -0.15 0.00461176
0.715434 0.5 0.15 0.0045969
0.467897 0.5 -0.5625 0.0089022
0.467897 0.5 0.5625 0.00875183
0.288069 0.5 -0.675 0.0140143
0.288069 0.5 0.675 0.0129363
0.523432 0.5 -0.525 0.00784125
0.523432 0.5 0.525 0.00772562
0 0.5 -0.743821 0.0132044
0 0.5 0.743821 0.0113943
0.0124865 0.5 -0.743821 0.0141172
0.0124865 0.5 0.743821 0.0121823
0.219992 0.5 0.7125 0.0142878
0.219992 0.5 -0.7125 0.0159712
0.715434 0.5 -0.225 0.0046874
0.715434 0.5 0.225 0.00466281
0 0.5 -0.75 0.0131809
0 0.5 0.75 0.0113841
0.67013 0.5 0.3375 0.00523604
0.67013 0.5 -0.3375 0.00527235
0.574156 0.5 -0.4875 0.00683047
0.574156 0.5 0.4875 0.00674398
0 0.5 -0.756179 0.0131568
0 0.5 0.756179 0.0113715
0.0124865 0.5 -0.756179 0.0140494
0.0124865 0.5 0.756179 0.012149
0.756813 0.5 -0.0375 0.00416085
0.756813 0.5 0.0375 0.00415344
0.151149 0.5 -0.75 0.0172157
0.151149 0.5 0.75 0.0151203
0.756813 0.5 -0.1125 0.00419281
0.756813 0.5 0.1125 0.0041768
0.624316 0.5 -0.45 0.0061096
0.624316 0.5 0.45 0.00602991
0.715434 0.5 -0.3 0.00479152
0.715434 0.5 0.3 0.00475384
0.756813 0.5 0.1875 0.00422665
0.756813 0.5 -0.1875 0.00425013
0.67013 0.5 -0.4125 0.00542632
0.67013 0.5 0.4125 0.00535327
0.411736 0.5 -0.675 0.0106558
0.411736 0.5 0.675 0.0102641
0.467897 0.5 0.6375 0.00895172
0.467897 0.5 -0.6375 0.00917224
0.075776 0.5 -0.7875 0.0184363
0.075776 0.5 0.7875 0.0160139
0.350249 0.5 -0.7125 0.012171
0.350249 0.5 0.7125 0.0115877
0.523432 0.5 -0.6 0.00809553
0.523432 0.5 0.6 0.00792341
0.797732 0.5 2.68882e-17 0.00386921
0.756813 0.5 -0.2625 0.00434008
0.756814 0.5 0.2625 0.00429969
0.797732 0.5 0.0736268 0.00387872
0.797732 0.5 -0.075 0.0038886
0.288069 0.5 -0.75 0.0140255
0.288069 0.5 0.75 0.0128722
0.574156 0.5 -0.5625 0.00706841
0.574157 0.5 0.5625 0.0069375
0.715434 0.5 -0.375 0.00492402
0.715434 0.5 0.375 0.00486673
0.797732 0.5 -0.15 0.00393116
0.797732 0.5 0.15 0.00390957
0.624316 0.5 -0.525 0.00632189
0.624316 0.5 0.525 0.00620453
0.219992 0.5 -0.7875 0.0157952
0.219992 0.5 0.7875 0.0140866
0 0.5 -0.818821 0.012946
0 0.5 0.818821 0.0112864
0.0124865 0.5 0.818821 0.0120638
0.0124865 0.5 -0.818821 0.0138387
0 0.5 -0.825 0.0129295
0 0.5 0.825 0.0112823
0.756813 0.5 0.3375 0.00439596
0.756814 0.5 -0.3375 0.00444683
0.67013 0.5 -0.4875 0.00561469
0.67013 0.5 0.4875 0.00550957
0.797732 0.5 -0.225 0.00400103
0.797732 0.5 0.225 0.00396716
0 0.5 -0.831179 0.012911
0 0.5 0.831179 0.0112783
0.0124865 0.5 -0.831179 0.01379
0.0124865 0.5 0.831179 0.0120533
0.835106 0.5 0.0375 0.00358929
0.835106 0.5 -0.0375 0.00359732
0.151149 0.5 -0.825 0.0169689
0.151149 0.5 0.825 0.0149636
0.835106 0.5 0.1125 0.00360828
0.835106 0.5 -0.1125 0.00362747
0.715434 0.5 -0.45 0.0050883
0.715434 0.5 0.45 0.00499804
0.797732 0.5 -0.3 0.00409263
0.797732 0.5 0.3 0.00404668
0.467897 0.5 0.7125 0.0091695
0.467897 0.5 -0.7125 0.00947641
0.523432 0.5 -0.675 0.00838549
0.523432 0.5 0.675 0.00814226
0.411736 0.5 -0.75 0.0109245
0.411736 0.5 0.75 0.0104274
0.835106 0.5 -0.1875 0.00367847
0.835106 0.5 0.1875 0.00365098
0.574156 0.5 -0.6375 0.00734284
0.574157 0.5 0.6375 0.00715476
0.350249 0.5 -0.7875 0.0123984
0.350249 0.5 0.7875 0.0116926
0.756813 0.5 -0.4125 0.00458991
0.756814 0.5 0.4125 0.00452127
0.075776 0.5 -0.8625 0.0181377
0.075776 0.5 0.8625 0.0159328
0.624316 0.5 0.6 0.00640436
0.624316 0.5 -0.6 0.0065702
0.872064 0.5 5.91974e-17 0.00336846
0.870122 0.5 0.075 0.0033871
0.288069 0.5 -0.825 0.0140791
0.288069 0.5 0.825 0.0128507
0.67013 0.5 -0.5625 0.00583756
0.67013 0.5 0.5625 0.00569162
0.872064 0.5 -0.075 0.00338768
0.835106 0.5 -0.2625 0.00375998
0.835106 0.5 0.2625 0.00371608
0.797732 0.5 -0.375 0.0042107
0.797732 0.5 0.375 0.00415103
0.872064 0.5 0.14794 0.003401
0.872064 0.5 -0.15 0.00342525
0.715434 0.5 -0.525 0.00528504
0.715434 0.5 0.525 0.00515515
0.219992 0.5 0.8625 0.0139546
0.219993 0.5 -0.8625 0.0156804
0 0.5 -0.893821 0.0127642
0 0.5 0.893821 0.011246
0.0124865 0.5 -0.893821 0.0136433
0.0124865 0.5 0.893821 0.012021
0 0.5 -0.9 0.0127555
0 0.5 0.9 0.0112408
0.756813 0.5 -0.4875 0.00476224
0.756813 0.5 0.4875 0.0046482
0.872064 0.5 -0.225 0.00348686
0.872064 0.5 0.225 0.00345111
0.835106 0.5 -0.3375 0.00384875
0.835106 0.5 0.3375 0.0038002
0 0.5 0.906179 0.0112396
0 0.5 -0.906179 0.0127431
0.0124865 0.5 -0.906179 0.0136163
0.0124865 0.5 0.906179 0.0120084
0.90582 0.5 -0.0375 0.00315664
0.90582 0.5 0.0375 0.00314744
0.151149 0.5 -0.9 0.0168113
0.151149 0.5 0.9 0.0148826
0.90582 0.5 -0.1125 0.00318614
0.905821 0.5 0.1125 0.00316285
0.523432 0.5 -0.75 0.00871038
0.523432 0.5 0.75 0.00838051
0.574156 0.5 -0.7125 0.00765378
0.574156 0.5 0.7125 0.00739415
0.797732 0.5 -0.45 0.004362
0.797732 0.5 0.45 0.00427044
0.467897 0.5 0.7875 0.00940354
0.467897 0.5 -0.7875 0.00981336
0.624316 0.5 -0.675 0.0068548
0.624316 0.5 0.675 0.00662771
0.411736 0.5 -0.825 0.0112226
0.411736 0.5 0.825 0.0106075
0.872064 0.5 0.3 0.0035213
0.872064 0.5 -0.3 0.00357151
0.67013 0.5 -0.6375 0.00609639
0.67013 0.5 0.6375 0.00589868
0.90582 0.5 0.1875 0.00319905
0.905821 0.5 -0.1875 0.00322597
0.350249 0.5 -0.8625 0.0126516
0.350249 0.5 0.8625 0.0118165
0.835106 0.5 -0.4125 0.00398301
0.835106 0.5 0.4125 0.00391245
0.715434 0.5 -0.6 0.00551596
0.715434 0.5 0.6 0.00534076
0.939201 0.5 2.75387e-17 0.00303956
0.075776 0.5 0.9375 0.0158919
0.075776 0.5 -0.9375 0.0179602
0.939111 0.5 0.075 0.00304465
0.939201 0.5 -0.075 0.00305875
0.756813 0.5 0.5625 0.00481248
0.756814 0.5 -0.5625 0.00496648
0.90582 0.5 0.2625 0.00325576
0.905821 0.5 -0.2625 0.00330045
0.288069 0.5 -0.9 0.0141765
0.288069 0.5 0.9 0.0128716
0.872064 0.5 -0.375 0.00367813
0.872064 0.5 0.375 0.0036129
0.939201 0.5 0.148627 0.00307082
0.939201 0.5 -0.15 0.00309112
0.797732 0.5 -0.525 0.00454131
0.797732 0.5 0.525 0.00440892
0.219992 0.5 0.9375 0.0138874
0.219992 0.5 -0.9375 0.01563
0.939201 0.5 -0.225 0.00314512
0.939201 0.5 0.225 0.0031159
0.905821 0.5 -0.3375 0.0033943
0.90582 0.5 0.3375 0.00333094
0.835106 0.5 -0.4875 0.00413909
0.835106 0.5 0.4875 0.00402616
0 0.5 0.968821 0.0112279
0 0.5 -0.968821 0.0126655
0.0124865 0.5 -0.968821 0.0135386
0.0124865 0.5 0.968821 0.0119967
0.969689 0.5 -0.0375 0.00293496
0.969689 0.5 0.0375 0.00292657
0.574156 0.5 -0.7875 0.00800082
0.574156 0.5 0.7875 0.00765462
0 0.5 -0.975 0.0126622
0 0.5 0.975 0.0112247
0.624316 0.5 -0.75 0.00717564
0.624316 0.5 0.75 0.0068735
0.969689 0.5 -0.1125 0.00296463
0.96969 0.5 0.1125 0.00294352
0.523432 0.5 -0.825 0.00906909
0.523432 0.5 0.825 0.00863699
0.67013 0.5 0.7125 0.0061289
0.67013 0.5 -0.7125 0.00639144
0 0.5 -0.981179 0.0126598
0 0.5 0.981179 0.0112226
0.467897 0.5 0.8625 0.00965308
0.467897 0.5 -0.8625 0.0101812
0.0124865 0.5 -0.981179 0.013536
0.0124865 0.5 0.981179 0.0119814
0.872064 0.5 -0.45 0.00381206
0.872064 0.5 0.45 0.00372349
0.715434 0.5 -0.675 0.00578202
0.715434 0.5 0.675 0.00555054
0.939201 0.5 -0.3 0.00322687
0.939201 0.5 0.3 0.00318141
0.151149 0.5 0.975 0.0148357
0.151149 0.5 -0.975 0.0167477
0.969689 0.5 -0.1875 0.00299525
0.969689 0.5 0.1875 0.00298007
0.756813 0.5 -0.6375 0.00520513
0.756813 0.5 0.6375 0.00500236
0.411736 0.5 -0.9 0.0115488
0.411736 0.5 0.9 0.0108051
0.90582 0.5 -0.4125 0.00350423
0.90582 0.5 0.4125 0.00342628
0.995005 0.5 0.0749309 0.00280045
0.797732 0.5 -0.6 0.00475309
0.797732 0.5 0.6 0.00457774
1.00005 0.5 -8.47123e-18 0.00276581
0.350249 0.5 -0.9375 0.0129306
0.350249 0.5 0.9375 0.0119604
1.00005 0.5 -0.0749309 0.00278342
0.969689 0.5 -0.2625 0.00306654
0.969689 0.5 0.2625 0.00303604
0.835106 0.5 -0.5625 0.00432443
0.835106 0.5 0.5625 0.00417576
1.00005 0.5 -0.149862 0.0028123
0.939201 0.5 -0.375 0.00332817
0.939201 0.5 0.375 0.00326492
1.00029 0.5 0.148988 0.00279988
0.075776 0.5 -1.0125 0.0179206
0.075776 0.5 1.0125 0.0158319
0.288069 0.5 0.975 0.012929
0.288069 0.5 -0.975 0.0143169
0.872064 0.5 -0.525 0.0039732
0.872064 0.5 0.525 0.00385132
1.00005 0.5 0.224793 0.00284079
1.00005 0.5 -0.224793 0.00286195
0.969689 0.5 0.3375 0.00311025
0.96969 0.5 -0.3375 0.00315406
1.0271 0.5 -0.0368226 0.00259687
1.0271 0.5 0.0368226 0.00258895
0.90582 0.5 0.4875 0.00354753
0.905821 0.5 -0.4875 0.00364055
1.0271 0.5 -0.110468 0.0026194
1.0271 0.5 0.110468 0.00259237
0.67013 0.5 0.7875 0.00638241
0.67013 0.5 -0.7875 0.00672261
0.624316 0.5 0.825 0.00714113
0.624316 0.5 -0.825 0.00753259
0.219993 0.5 -1.0125 0.0156383
0.219993 0.5 1.0125 0.0138655
0.574156 0.5 -0.8625 0.0083832
0.574156 0.5 0.8625 0.00793488
0.715434 0.5 -0.75 0.00608447
0.715434 0.5 0.75 0.00578398
0.756813 0.5 0.7125 0.00521514
0.756814 0.5 -0.7125 0.00547781
0.523432 0.5 -0.9 0.00946067
0.523432 0.5 0.9 0.00891084
0.939201 0.5 -0.45 0.00346136
0.939201 0.5 0.45 0.00336938
1.04168 0.5 0 0.00251364
1.0271 0.5 -0.184113 0.0026516
1.0271 0.5 0.184113 0.00263695
0 0.5 -1.04382 0.012631
0 0.5 1.04382 0.0112613
0.0124865 0.5 -1.04382 0.0135072
0.0124865 0.5 1.04382 0.0120201
1.00005 0.5 -0.299723 0.00293891
1.00005 0.5 0.299723 0.00290409
1.04168 0.5 -0.0729162 0.00252831
1.04168 0.5 0.0729162 0.00251599
0.797732 0.5 -0.675 0.00500044
0.797732 0.5 0.675 0.00476956
0.467897 0.5 0.9375 0.0099186
0.467897 0.5 -0.9375 0.010579
0 0.5 -1.05 0.0126229
0 0.5 1.05 0.0112719
0.835106 0.5 -0.6375 0.0045441
0.835106 0.5 0.6375 0.00434795
1.04168 0.5 -0.145832 0.00255285
1.04168 0.5 0.145832 0.00253764
0.969689 0.5 -0.4125 0.00326799
0.96969 0.5 0.4125 0.00319965
0 0.5 -1.05618 0.0126216
0 0.5 1.05618 0.011282
0.0124865 0.5 -1.05618 0.0134921
0.0124865 0.5 1.05618 0.0120484
1.05695 0.5 -0.0360764 0.00243887
1.05695 0.5 0.0360764 0.00242925
0.411736 0.5 -0.975 0.0119033
0.411736 0.5 0.975 0.0110213
0.872064 0.5 -0.6 0.00416981
0.872064 0.5 0.6 0.00400119
1.0271 0.5 -0.257759 0.00271263
1.0271 0.5 0.257759 0.00268689
0.151149 0.5 -1.05 0.0167481
0.151149 0.5 1.05 0.0148648
1.05695 0.5 0.108229 0.00242503
1.05695 0.5 -0.108229 0.00245613
1.04168 0.5 -0.218749 0.00259542
1.04168 0.5 0.218749 0.0025746
0.90582 0.5 -0.5625 0.00380807
0.905821 0.5 0.5625 0.00367456
1.00005 0.5 -0.374654 0.00303868
1.00005 0.5 0.374654 0.00298442
0.350249 0.5 1.0125 0.0121216
0.350249 0.5 -1.0125 0.0132348
1.05695 0.5 -0.180382 0.00248403
1.05695 0.5 0.180382 0.002467
1.07319 0.5 0.0709442 0.00236745
0.939201 0.5 -0.525 0.00362215
0.939201 0.5 0.525 0.00348997
1.0271 0.5 -0.331404 0.00279475
1.0271 0.5 0.331404 0.00275469
1.08112 0.5 3.23815e-17 0.00233784
1.04168 0.5 -0.291665 0.0026611
1.04168 0.5 0.291665 0.00262781
1.08112 0.5 -0.0709442 0.00235028
0.969689 0.5 -0.4875 0.00343986
0.96969 0.5 0.4875 0.00331179
1.05695 0.5 0.252535 0.0025067
1.05695 0.5 -0.252535 0.00253476
0.288069 0.5 -1.05 0.0145034
0.288069 0.5 1.05 0.0130266
0.075776 0.5 -1.0875 0.0178882
0.075776 0.5 1.0875 0.0159726
1.08112 0.5 -0.141888 0.00236976
1.08145 0.5 0.140165 0.0023605
0.715434 0.5 0.825 0.00604158
0.715434 0.5 -0.825 0.00642528
0.756813 0.5 0.7875 0.00545315
0.756814 0.5 -0.7875 0.00578972
0.67013 0.5 -0.8625 0.00709062
0.67013 0.5 0.8625 0.00665894
0.797732 0.5 -0.75 0.00528476
0.797732 0.5 0.75 0.00498486
0.624316 0.5 -0.9 0.00792556
0.624316 0.5 0.9 0.00742895
1.00005 0.5 -0.449585 0.0031756
1.00005 0.5 0.449585 0.00308391
0.835106 0.5 -0.7125 0.00480318
0.835106 0.5 0.7125 0.00454116
0.574156 0.5 -0.9375 0.00880055
0.574157 0.5 0.9375 0.00823311
1.10076 0.5 -0.0349809 0.00227282
1.10076 0.5 0.0349809 0.00226236
1.08112 0.5 -0.212832 0.00240587
1.08112 0.5 0.212832 0.00238789
0.872064 0.5 -0.675 0.00440279
0.872064 0.5 0.675 0.00417376
1.04168 0.5 -0.364581 0.00274829
1.04168 0.5 0.364581 0.00269682
1.0271 0.5 0.405049 0.00283857
1.0271 0.5 -0.405049 0.00290308
1.05695 0.5 -0.324688 0.00260358
1.05695 0.5 0.324688 0.00256205
1.10076 0.5 -0.104943 0.00228565
1.10076 0.5 0.104943 0.00227478
0.523432 0.5 0.975 0.00920324
0.523432 0.5 -0.975 0.00988529
0.90582 0.5 0.6375 0.00382606
0.905821 0.5 -0.6375 0.00402243
0.219992 0.5 1.0875 0.013924
0.219992 0.5 -1.0875 0.015699
1.11376 0.5 3.81639e-17 0.00222407
0.939201 0.5 0.6 0.00364201
0.939201 0.5 -0.6 0.00379181
1.10076 0.5 -0.174905 0.00230757
1.10076 0.5 0.174905 0.00229928
0.467897 0.5 -1.0125 0.0110085
0.467897 0.5 1.0125 0.0102052
1.11376 0.5 -0.0693118 0.00223542
1.11376 0.5 0.0693118 0.00222505
1.08112 0.5 0.283777 0.00243286
1.08112 0.5 -0.283777 0.00246176
0 0.5 -1.11882 0.0125973
0 0.5 1.11882 0.0113867
0.0124865 0.5 -1.11882 0.0134679
0.0124865 0.5 1.11882 0.0121531
0.969689 0.5 -0.5625 0.00360668
0.969689 0.5 0.5625 0.00343395
1.11376 0.5 0.138624 0.00224544
1.11376 0.5 -0.138624 0.00225157
0 0.5 -1.125 0.0125911
0 0.5 1.125 0.0113973
1.10076 0.5 0.244866 0.00233627
1.10076 0.5 -0.244866 0.00235401
0.411736 0.5 -1.05 0.0122972
0.411736 0.5 1.05 0.0112573
1.05695 0.5 -0.396841 0.00269491
1.05695 0.5 0.396841 0.00263134
1.00005 0.5 -0.524516 0.00332629
1.00005 0.5 0.524516 0.00320241
1.04168 0.5 -0.437497 0.0028634
1.04168 0.5 0.437497 0.00278295
0 0.5 -1.13118 0.0125859
0 0.5 1.13118 0.0114089
0.0124865 0.5 -1.13118 0.0134447
0.0124865 0.5 1.13118 0.0121811
1.11376 0.5 -0.207935 0.00228452
1.11376 0.5 0.207935 0.00227375
1.0271 0.5 -0.478694 0.00304194
1.0271 0.5 0.478694 0.00294346
0.151149 0.5 -1.125 0.0167692
0.151149 0.5 1.125 0.0149963
1.08112 0.5 -0.354722 0.00253592
1.08112 0.5 0.354722 0.00249209
1.13882 0.5 -0.0340295 0.00214256
1.13882 0.5 0.0340295 0.00213296
0.350249 0.5 -1.0875 0.0135884
0.350249 0.5 1.0875 0.012304
1.13882 0.5 -0.102088 0.00215367
1.13882 0.5 0.102088 0.00214067
1.10076 0.5 -0.314829 0.00241579
1.10076 0.5 0.314829 0.00238815
0.756813 0.5 -0.8625 0.00614267
0.756814 0.5 0.8625 0.00571619
0.797732 0.5 -0.825 0.00560669
0.797732 0.5 0.825 0.00522549
1.11376 0.5 -0.277247 0.00233744
1.11376 0.5 0.277247 0.00231741
0.835106 0.5 0.7875 0.00475922
0.835106 0.5 -0.7875 0.00509744
0.715434 0.5 -0.9 0.00680384
0.715434 0.5 0.9 0.00632091
0.872064 0.5 -0.75 0.00466871
0.872064 0.5 0.75 0.0043707
1.13882 0.5 0.170147 0.0021686
1.13882 0.5 -0.170147 0.00217148
0.67013 0.5 -0.9375 0.00749545
0.67013 0.5 0.9375 0.00695533
0.905821 0.5 -0.7125 0.00426168
0.905821 0.5 0.7125 0.00400016
1.05695 0.5 0.468994 0.00271862
1.05695 0.5 -0.468994 0.00281264
0.939201 0.5 -0.675 0.00399195
0.939201 0.5 0.675 0.00381332
0.624316 0.5 0.975 0.00773604
0.624316 0.5 -0.975 0.00835629
1.04168 0.5 -0.510414 0.00298178
1.04168 0.5 0.510414 0.00288923
0.969689 0.5 -0.6375 0.00373805
0.96969 0.5 0.6375 0.00364051
0.288069 0.5 -1.125 0.0147399
0.288069 0.5 1.125 0.0131504
1.16179 0.5 5.78241e-19 0.00205426
1.08112 0.5 0.425666 0.00256612
1.08112 0.5 -0.425666 0.00263298
1.13882 0.5 -0.238206 0.00221483
1.13882 0.5 0.238206 0.00220376
1.16179 0.5 0.0669104 0.00204308
1.16179 0.5 -0.0669104 0.00206416
0.574156 0.5 -1.0125 0.00925316
0.574156 0.5 1.0125 0.00855057
0.075776 0.5 -1.1625 0.0177949
0.075776 0.5 1.1625 0.0161594
1.00005 0.5 -0.599447 0.00347893
1.00005 0.5 0.599447 0.00336006
1.10076 0.5 0.384791 0.00245339
1.10076 0.5 -0.384791 0.00249625
1.0271 0.5 -0.55234 0.00316691
1.0271 0.5 0.55234 0.00306957
1.11376 0.5 -0.346559 0.00240656
1.11376 0.5 0.346559 0.00237498
1.16179 0.5 -0.133821 0.00207593
1.16179 0.5 0.133821 0.00207061
0.523432 0.5 -1.05 0.0103514
0.523432 0.5 1.05 0.00951616
1.17463 0.5 -0.0331343 0.002015
1.17463 0.5 0.0331343 0.00200455
1.17463 0.5 -0.0994029 0.00202355
1.17463 0.5 0.0994029 0.00201647
1.16179 0.5 -0.200731 0.00210335
1.16179 0.5 0.200731 0.00209954
1.13882 0.5 -0.306265 0.002272
1.13882 0.5 0.306265 0.00225263
0.219992 0.5 -1.1625 0.0158347
0.219992 0.5 1.1625 0.0140688
0.467897 0.5 -1.0875 0.0114893
0.467897 0.5 1.0875 0.0105114
1.17463 0.5 0.165672 0.0020379
1.17463 0.5 -0.165672 0.00203635
1.05695 0.5 -0.541147 0.00290801
1.05695 0.5 0.541147 0.00282639
1.18772 0.5 -5.78241e-19 0.00196575
1.11376 0.5 -0.41587 0.00249549
1.11376 0.5 0.41587 0.00244634
1.18772 0.5 -0.065614 0.00197468
1.18772 0.5 0.065614 0.00196728
1.08112 0.5 -0.49661 0.00273187
1.08112 0.5 0.49661 0.00265801
1.10076 0.5 -0.454752 0.00260087
1.10076 0.5 0.454752 0.00253365
1.18534 0.5 0.118202 0.00198264
1.16179 0.5 -0.267642 0.00215009
1.16179 0.5 0.267642 0.0021386
0 0.5 -1.19382 0.0126091
0 0.5 1.19382 0.0115517
0.0124865 0.5 1.19382 0.0123239
0.0124865 0.5 -1.19382 0.0134679
1.04168 0.5 -0.58333 0.00311862
1.04168 0.5 0.58333 0.0030213
1.18772 0.5 -0.131228 0.0019844
1.17463 0.5 -0.23194 0.00207491
1.17463 0.5 0.23194 0.00206937
0.411736 0.5 -1.125 0.0127307
0.411736 0.5 1.125 0.0114684
1.13882 0.5 -0.374324 0.00234538
1.13882 0.5 0.374324 0.00231449
0 0.5 -1.2 0.0126205
0 0.5 1.2 0.0115673
0.905821 0.5 0.7875 0.00420318
0.905821 0.5 -0.7875 0.00453356
0.872064 0.5 -0.825 0.0049708
0.872064 0.5 0.825 0.00460023
0.835106 0.5 0.8625 0.00500345
0.835106 0.5 -0.8625 0.00542691
0.939201 0.5 -0.75 0.00423453
0.939201 0.5 0.75 0.00397787
0.797732 0.5 -0.9 0.00596837
0.797732 0.5 0.9 0.00548981
1.0271 0.5 0.625985 0.00322927
1.0271 0.5 -0.625985 0.00334165
0.969689 0.5 0.7125 0.00379299
0.96969 0.5 -0.7125 0.00395543
1.18772 0.5 -0.196842 0.00200835
1.18772 0.5 0.196842 0.00200807
0.756814 0.5 -0.9375 0.00653187
0.756814 0.5 0.9375 0.00599822
0 0.5 1.20618 0.0115833
0 0.5 -1.20618 0.0126304
1.00005 0.5 -0.674378 0.00366909
1.00005 0.5 0.674378 0.00352247
0.0124865 0.5 1.20618 0.0123657
0.0124865 0.5 -1.20618 0.0135011
1.16179 0.5 -0.334552 0.00221055
1.16179 0.5 0.334552 0.00219035
0.715434 0.5 0.975 0.00662005
0.715434 0.5 -0.975 0.00722497
0.151149 0.5 -1.2 0.0168791
0.151149 0.5 1.2 0.0152063
1.20942 0.5 0.0322645 0.00188455
1.20942 0.5 -0.0322645 0.00189545
1.17463 0.5 -0.298209 0.00212574
1.17463 0.5 0.298209 0.00211304
1.20942 0.5 -0.0967935 0.00190163
1.20942 0.5 0.0967935 0.00189702
0.350249 0.5 -1.1625 0.0139667
0.350249 0.5 1.1625 0.0124107
0.67013 0.5 1.0125 0.0072717
0.67013 0.5 -1.0125 0.00794394
1.11376 0.5 0.485183 0.00253393
1.11376 0.5 -0.485183 0.00258834
1.18772 0.5 0.262456 0.00204408
1.18772 0.5 -0.262456 0.00205068
1.10076 0.5 -0.524714 0.00268795
1.10076 0.5 0.524714 0.00263249
1.20942 0.5 -0.161322 0.0019119
1.20942 0.5 0.161322 0.0019163
1.08112 0.5 -0.567554 0.00284689
1.08112 0.5 0.567554 0.00276948
0.624316 0.5 -1.05 0.00883027
0.624316 0.5 1.05 0.00806439
1.13882 0.5 -0.442383 0.00243529
1.13882 0.5 0.442383 0.00238976
1.05695 0.5 0.6133 0.00295907
1.05695 0.5 -0.6133 0.00306542
1.16179 0.5 -0.401463 0.00228567
1.16179 0.5 0.401463 0.00225462
0.574156 0.5 -1.0875 0.00975338
0.574156 0.5 1.0875 0.00889016
1.17463 0.5 0.364477 0.00216912
1.17463 0.5 -0.364477 0.00219075
1.20942 0.5 -0.225851 0.00194399
1.20942 0.5 0.225851 0.00194451
1.23036 0.5 -1.32995e-17 0.00182204
1.2294 0.5 0.0634819 0.00182604
1.04168 0.5 -0.656246 0.00330331
1.04168 0.5 0.656246 0.00316124
1.23036 0.5 -0.0634819 0.00182914
1.18772 0.5 0.32807 0.00209196
1.18772 0.5 -0.32807 0.00210589
0.288069 0.5 -1.2 0.0150321
0.288069 0.5 1.2 0.0133436
1.23036 0.5 -0.126964 0.00183601
1.23036 0.5 0.126964 0.00183749
0.075776 0.5 -1.2375 0.0179445
0.075776 0.5 1.2375 0.0164165
0.523432 0.5 -1.125 0.0108604
0.523432 0.5 1.125 0.00981786
1.0271 0.5 -0.69963 0.00355716
1.0271 0.5 0.69963 0.0033629
1.24274 0.5 0.0314313 0.00177861
1.24274 0.5 -0.0314313 0.00178762
1.20942 0.5 0.29038 0.00198326
1.20942 0.5 -0.29038 0.00198863
1.11376 0.5 -0.554494 0.00269463
1.11376 0.5 0.554494 0.00263704
1.23036 0.5 -0.190445 0.00185504
1.23036 0.5 0.190445 0.00186001
1.24274 0.5 -0.0942942 0.00179197
1.24274 0.5 0.0942942 0.0017897
1.13882 0.5 0.510442 0.00248148
1.13882 0.5 -0.510442 0.00251919
0.969689 0.5 -0.7875 0.00419812
0.969689 0.5 0.7875 0.00392318
1.00005 0.5 -0.749309 0.00390538
1.00005 0.5 0.749309 0.00367208
0.939201 0.5 -0.825 0.00450839
0.939201 0.5 0.825 0.00417186
0.90582 0.5 0.8625 0.00445608
0.90582 0.5 -0.8625 0.00484702
1.17463 0.5 -0.430746 0.00226852
1.17463 0.5 0.430746 0.00223722
1.10076 0.5 -0.594676 0.0028195
1.10076 0.5 0.594676 0.00274696
1.18772 0.5 -0.393684 0.00217367
1.18772 0.5 0.393684 0.00215177
1.24274 0.5 -0.157157 0.00179985
1.24274 0.5 0.157157 0.00180767
1.16179 0.5 -0.468373 0.00236802
1.16179 0.5 0.468373 0.00233313
0.467897 0.5 -1.1625 0.0120024
0.467897 0.5 1.1625 0.0107523
0.872064 0.5 -0.9 0.00531463
0.872064 0.5 0.9 0.00485818
1.25401 0.5 2.08167e-17 0.00175158
0.835106 0.5 0.9375 0.00527212
0.835106 0.5 -0.9375 0.00580281
1.25401 0.5 -0.0622994 0.00175793
1.25401 0.5 0.0622994 0.0017524
1.08112 0.5 -0.638498 0.00300658
1.08112 0.5 0.638498 0.00289764
1.23036 0.5 -0.253927 0.00189038
1.23036 0.5 0.253927 0.00189145
0.219992 0.5 1.2375 0.0143209
0.219992 0.5 -1.2375 0.0160713
1.25309 0.5 0.121964 0.00176674
1.05695 0.5 0.685452 0.00308646
1.05695 0.5 -0.685452 0.0032554
0.797732 0.5 0.975 0.0057754
0.797732 0.5 -0.975 0.00637229
1.25401 0.5 -0.124599 0.00176346
1.20942 0.5 -0.354909 0.0020455
1.20942 0.5 0.354909 0.00203364
1.24274 0.5 -0.220019 0.00182714
1.24274 0.5 0.220019 0.00183369
0.756814 0.5 -1.0125 0.00697433
0.756813 0.5 1.0125 0.00630067
1.25401 0.5 -0.186898 0.0017801
1.25401 0.5 0.186898 0.00178809
0.411736 0.5 -1.2 0.0131892
0.411736 0.5 1.2 0.0116979
0 0.5 -1.26882 0.0127269
0 0.5 1.26882 0.0117729
0.0124865 0.5 1.26882 0.0125553
0.0124865 0.5 -1.26882 0.0135976
0.715434 0.5 -1.05 0.00769051
0.715434 0.5 1.05 0.00694265
1.23036 0.5 -0.31741 0.0019374
1.23036 0.5 0.31741 0.0019331
1.04168 0.5 -0.729162 0.00352332
1.04168 0.5 0.729162 0.00330197
1.18772 0.5 -0.459298 0.00225193
1.18772 0.5 0.459298 0.00222502
1.24274 0.5 -0.282882 0.00186676
1.24274 0.5 0.282882 0.00186864
0 0.5 -1.275 0.0127358
0 0.5 1.275 0.0117938
1.27472 0.5 -0.0306319 0.00168711
1.27472 0.5 0.0306319 0.00168008
1.17463 0.5 0.497015 0.00232094
1.17463 0.5 -0.497015 0.0023494
1.11376 0.5 -0.623806 0.0028379
1.11376 0.5 0.623806 0.00276178
1.13882 0.5 -0.578501 0.00263825
1.13882 0.5 0.578501 0.0025838
0.67013 0.5 -1.0875 0.00843878
0.67013 0.5 1.0875 0.0076117
1.27472 0.5 -0.0918959 0.00169074
1.27472 0.5 0.0918959 0.00170243
1.25401 0.5 -0.249197 0.00181223
1.25401 0.5 0.249197 0.00181768
1.16179 0.5 -0.535284 0.00246237
1.16179 0.5 0.535284 0.00242349
1.20942 0.5 -0.419438 0.00211243
1.20942 0.5 0.419438 0.00209533
0 0.5 -1.28118 0.0127465
0 0.5 1.28118 0.0118151
0.0124865 0.5 1.28118 0.0126125
0.0124865 0.5 -1.28118 0.0136241
1.27472 0.5 0.15316 0.00170658
1.27472 0.5 -0.15316 0.00169664
0.151149 0.5 -1.275 0.0171019
0.151149 0.5 1.275 0.0154961