# pMean  POINT_DATA 63140
# x  y  z  pMean
0 0.1 0 0.208713
0 0.1 -0.0179898 0.208984
0 0.1 0.0179898 0.208446
0.0363518 0.1 0.0179898 0.208446
0.0363518 0.1 -0.0179898 0.208984
0 0.1 -0.0570102 0.209447
0 0.1 0.0570102 0.207722
0.0363518 0.1 0.0570102 0.207722
0.0363518 0.1 -0.0570102 0.209447
0 0.1 -0.075 0.209603
0 0.1 0.075 0.207325
0.075776 0.1 -0.0375 0.20928
0.075776 0.1 0.0375 0.208156
0 0.1 -0.0929898 0.209761
0 0.1 0.0929898 0.20693
0.0363518 0.1 -0.0929898 0.209761
0.0363518 0.1 0.0929898 0.20693
0 0.1 -0.13201 0.209958
0 0.1 0.13201 0.205925
0.075776 0.1 -0.1125 0.209935
0.075776 0.1 0.1125 0.206502
0.0363518 0.1 -0.13201 0.209958
0.0363518 0.1 0.13201 0.205925
0 0.1 -0.15 0.209981
0 0.1 0.15 0.205396
0.150379 0.1 -2.22623e-17 0.20158
0 0.1 -0.16799 0.210008
0 0.1 0.16799 0.204869
0.150379 0.1 -0.075 0.202461
0.150379 0.1 0.075 0.200085
0.0363518 0.1 -0.16799 0.210008
0.0363518 0.1 0.16799 0.204869
0.075776 0.1 -0.1875 0.210037
0.075776 0.1 0.1875 0.204298
0 0.1 -0.20701 0.209899
0 0.1 0.20701 0.203581
0.0363518 0.1 -0.20701 0.209899
0.0363518 0.1 0.20701 0.203581
0.150379 0.1 -0.15 0.202724
0.150379 0.1 0.15 0.197985
0.219993 0.1 -0.0375 0.195393
0.219993 0.1 0.0375 0.194152
0 0.1 -0.225 0.209774
0 0.1 0.225 0.202922
0 0.1 -0.24299 0.209653
0 0.1 0.24299 0.202266
0.0363518 0.1 0.24299 0.202266
0.0363518 0.1 -0.24299 0.209653
0.219993 0.1 -0.1125 0.195897
0.219993 0.1 0.1125 0.192201
0.150379 0.1 -0.225 0.202322
0.150379 0.1 0.225 0.195288
0.075776 0.1 -0.2625 0.209521
0.075776 0.1 0.2625 0.201556
0 0.1 -0.28201 0.209226
0 0.1 0.28201 0.200697
0.0363518 0.1 -0.28201 0.209226
0.0363518 0.1 0.28201 0.200697
0.287374 0.1 -2.89121e-19 0.19792
0.219992 0.1 0.1875 0.189623
0.219992 0.1 -0.1875 0.195698
0.287374 0.1 -0.075 0.19883
0.287374 0.1 0.075 0.196309
0 0.1 -0.3 0.208957
0 0.1 0.3 0.199909
0 0.1 0.31799 0.199123
0 0.1 -0.31799 0.208691
0.0363518 0.1 -0.31799 0.208691
0.0363518 0.1 0.31799 0.199123
0.287374 0.1 0.15 0.194027
0.287374 0.1 -0.15 0.199032
0.150379 0.1 -0.3 0.20127
0.150379 0.1 0.3 0.192013
0.219993 0.1 0.2625 0.186382
0.219993 0.1 -0.2625 0.19472
0.075776 0.1 -0.3375 0.208403
0.075776 0.1 0.3375 0.198271
0.350249 0.1 -0.0375 0.201575
0.350249 0.1 0.0375 0.20029
0 0.1 -0.35701 0.207954
0 0.1 0.35701 0.197279
0.0363518 0.1 -0.35701 0.207954
0.0363518 0.1 0.35701 0.197279
0.287374 0.1 -0.225 0.198515
0.287374 0.1 0.225 0.191098
0.350249 0.1 -0.1125 0.20218
0.350249 0.1 0.1125 0.198324
0 0.1 -0.375 0.207542
0 0.1 0.375 0.196368
0 0.1 -0.39299 0.207132
0 0.1 0.39299 0.195457
0.0363518 0.1 -0.39299 0.207132
0.0363518 0.1 0.39299 0.195457
0.350249 0.1 -0.1875 0.202073
0.350249 0.1 0.1875 0.19569
0.219992 0.1 -0.3375 0.193148
0.219992 0.1 0.3375 0.182571
0.150379 0.1 0.375 0.188222
0.150379 0.1 -0.375 0.199637
0.411108 0.1 4.33681e-19 0.205811
0.287374 0.1 -0.3 0.197309
0.287374 0.1 0.3 0.187558
0.411108 0.1 -0.075 0.206771
0.411108 0.1 0.075 0.204084
0.075776 0.1 -0.4125 0.20669
0.075776 0.1 0.4125 0.194472
0 0.1 0.43201 0.193362
0 0.1 -0.43201 0.2061
0.0363518 0.1 0.43201 0.193362
0.0363518 0.1 -0.43201 0.2061
0.411108 0.1 -0.15 0.206954
0.411108 0.1 0.15 0.201605
0.350249 0.1 -0.2625 0.20128
0.350249 0.1 0.2625 0.192427
0 0.1 -0.45 0.20556
0 0.1 0.45 0.192341
0.219992 0.1 0.4125 0.178325
0.219992 0.1 -0.4125 0.191037
0 0.1 -0.46799 0.205021
0 0.1 0.46799 0.191322
0.411108 0.1 -0.225 0.206368
0.411108 0.1 0.225 0.198412
0.467897 0.1 -0.0375 0.211193
0.467897 0.1 0.0375 0.209789
0.0363518 0.1 0.46799 0.191322
0.0363518 0.1 -0.46799 0.205021
0.287374 0.1 -0.375 0.19548
0.287374 0.1 0.375 0.183486
0.150379 0.1 0.45 0.183985
0.150379 0.1 -0.45 0.197452
0.467897 0.1 0.1125 0.207542
0.467897 0.1 -0.1125 0.211735
0.350249 0.1 -0.3375 0.199794
0.350249 0.1 0.3375 0.188585
0.075776 0.1 -0.4875 0.204438
0.075776 0.1 0.4875 0.190219
0.467897 0.1 0.1875 0.204489
0.467897 0.1 -0.1875 0.211433
0 0.1 -0.50701 0.203714
0 0.1 0.50701 0.189003
0.0363518 0.1 -0.50701 0.203714
0.0363518 0.1 0.50701 0.189003
0.411108 0.1 0.3 0.19456
0.411108 0.1 -0.3 0.205028
0.522865 0.1 1.41031e-17 0.216278
0 0.1 -0.525 0.203049
0 0.1 0.525 0.187886
0.522865 0.1 -0.075 0.217288
0.522865 0.1 0.075 0.214355
0.287374 0.1 0.45 0.178942
0.287374 0.1 -0.45 0.193064
0.219992 0.1 0.4875 0.173695
0.219992 0.1 -0.4875 0.18839
0.467897 0.1 -0.2625 0.2103
0.467897 0.1 0.2625 0.200685
0.350249 0.1 -0.4125 0.197648
0.350249 0.1 0.4125 0.1842
0 0.1 -0.54299 0.202386
0 0.1 0.54299 0.18677
0.522865 0.1 0.15 0.211549
0.522865 0.1 -0.15 0.217381
0.0363518 0.1 0.54299 0.18677
0.0363518 0.1 -0.54299 0.202386
0.150379 0.1 -0.525 0.194765
0.150379 0.1 0.525 0.179372
0.411108 0.1 -0.375 0.202967
0.411108 0.1 0.375 0.190106
0.075776 0.1 -0.5625 0.201668
0.075776 0.1 0.5625 0.185561
0.522865 0.1 -0.225 0.216568
0.522865 0.1 0.225 0.207906
0.574156 0.1 0.0375 0.221075
0.574157 0.1 -0.0375 0.222613
0.467897 0.1 -0.3375 0.208369
0.467897 0.1 0.3375 0.19621
0 0.1 -0.58201 0.200822
0 0.1 0.58201 0.184258
0.0363518 0.1 -0.58201 0.200822
0.0363518 0.1 0.58201 0.184258
0.574157 0.1 -0.1125 0.223166
0.574157 0.1 0.1125 0.218579
0.287374 0.1 -0.525 0.190116
0.287374 0.1 0.525 0.173997
0 0.1 -0.6 0.200046
0 0.1 0.6 0.18306
0.350249 0.1 0.4875 0.179293
0.350249 0.1 -0.4875 0.19489
0.522865 0.1 -0.3 0.214874
0.522865 0.1 0.3 0.203494
0.219992 0.1 -0.5625 0.185325
0.219992 0.1 0.5625 0.168799
0.574156 0.1 -0.1875 0.222746
0.574156 0.1 0.1875 0.215161
0.411108 0.1 0.45 0.185099
0.411108 0.1 -0.45 0.200235
0 0.1 -0.61799 0.199271
0 0.1 0.61799 0.181862
0.150379 0.1 -0.6 0.191633
0.150379 0.1 0.6 0.17444
0.0363518 0.1 -0.61799 0.199271
0.0363518 0.1 0.61799 0.181862
0.467897 0.1 -0.4125 0.205709
0.467897 0.1 0.4125 0.191126
0.623803 0.1 2.34188e-17 0.228457
0.623803 0.1 0.075 0.226318
0.623803 0.1 -0.075 0.229545
0.574156 0.1 0.2625 0.210879
0.574156 0.1 -0.2625 0.221357
0.623803 0.1 0.15 0.223166
0.623803 0.1 -0.15 0.229573
0.075776 0.1 0.6375 0.180565
0.075776 0.1 -0.6375 0.198432
0.522865 0.1 -0.375 0.212356
0.522865 0.1 0.375 0.19839
0 0.1 0.65701 0.179189
0 0.1 -0.65701 0.19748
0.0363518 0.1 0.65701 0.179189
0.0363518 0.1 -0.65701 0.19748
0.350249 0.1 0.5625 0.173961
0.350249 0.1 -0.5625 0.191574
0.623803 0.1 0.225 0.21905
0.623803 0.1 -0.225 0.228548
0.287374 0.1 -0.6 0.186704
0.287374 0.1 0.6 0.168725
0.574157 0.1 -0.3375 0.219047
0.574157 0.1 0.3375 0.205813
0.411108 0.1 0.525 0.179609
0.411108 0.1 -0.525 0.196887
0.67013 0.1 0.0375 0.233984
0.67013 0.1 -0.0375 0.235683
0.219992 0.1 -0.6375 0.181883
0.219993 0.1 0.6375 0.16363
0 0.1 -0.675 0.196605
0 0.1 0.675 0.177924
0.467897 0.1 -0.4875 0.202369
0.467897 0.1 0.4875 0.185505
0.67013 0.1 -0.1125 0.236243
0.67013 0.1 0.1125 0.231172
0.522865 0.1 0.45 0.192675
0.522865 0.1 -0.45 0.209079
0.150379 0.1 0.675 0.169224
0.150379 0.1 -0.675 0.188098
0.623803 0.1 0.3 0.214047
0.623803 0.1 -0.3 0.226503
0 0.1 -0.69299 0.195731
0 0.1 0.69299 0.176658
0.0363518 0.1 -0.69299 0.195731
0.0363518 0.1 0.69299 0.176658
0.67013 0.1 -0.1875 0.235665
0.67013 0.1 0.1875 0.227301
0.574156 0.1 0.4125 0.20005
0.574157 0.1 -0.4125 0.215893
0.714971 0.1 -2.8382e-17 0.241998
0.075776 0.1 -0.7125 0.194785
0.075776 0.1 0.7125 0.175289
0.714971 0.1 -0.075 0.243171
0.714971 0.1 0.075 0.239607
0.67013 0.1 0.2625 0.222428
0.67013 0.1 -0.2625 0.23396
0.411108 0.1 -0.6 0.192986
0.411108 0.1 0.6 0.173722
0.350249 0.1 0.6375 0.168291
0.350249 0.1 -0.6375 0.187764
0.623803 0.1 0.375 0.208251
0.623803 0.1 -0.375 0.223508
0.714971 0.1 -0.15 0.243113
0.714971 0.1 0.15 0.236043
0.467897 0.1 -0.5625 0.198415
0.467897 0.1 0.5625 0.179432
0 0.1 -0.73201 0.193741
0 0.1 0.73201 0.173855
0.0363518 0.1 0.73201 0.173855
0.0363518 0.1 -0.73201 0.193741
0.287374 0.1 -0.675 0.182874
0.287374 0.1 0.675 0.163172
0.522865 0.1 -0.525 0.205111
0.522865 0.1 0.525 0.186437
0.219993 0.1 -0.7125 0.178075
0.219992 0.1 0.7125 0.158215
0.714971 0.1 -0.225 0.241833
0.714971 0.1 0.225 0.231369
0 0.1 0.75 0.172537
0 0.1 -0.75 0.192781
0.67013 0.1 -0.3375 0.231201
0.67013 0.1 0.3375 0.216661
0.574156 0.1 -0.4875 0.211959
0.574157 0.1 0.4875 0.193684
0.756813 0.1 0.0375 0.247989
0.756814 0.1 -0.0375 0.249866
0.150379 0.1 0.746002 0.164186
0.150379 0.1 -0.75 0.184198
0.756813 0.1 -0.1125 0.250418
0.756813 0.1 0.1125 0.244822
0 0.1 0.76799 0.171218
0 0.1 -0.76799 0.191821
0.0363518 0.1 0.76799 0.171218
0.0363518 0.1 -0.76799 0.191821
0.623803 0.1 -0.45 0.219638
0.623803 0.1 0.45 0.201761
0.714971 0.1 -0.3 0.239376
0.714971 0.1 0.3 0.225673
0.756814 0.1 -0.1875 0.249656
0.756814 0.1 0.1875 0.24043
0.67013 0.1 -0.4125 0.227461
0.67013 0.1 0.4125 0.2101
0.411108 0.1 0.675 0.167524
0.411108 0.1 -0.675 0.188605
0.467897 0.1 0.6375 0.172992
0.467897 0.1 -0.6375 0.19392
0.075776 0.1 0.7875 0.169791
0.075776 0.1 -0.7875 0.190784
0.350249 0.1 -0.7125 0.183524
0.350249 0.1 0.7125 0.162358
0.522865 0.1 -0.6 0.200533
0.522865 0.1 0.6 0.179774
0.797314 0.1 -3.59473e-17 0.256449
0.287374 0.1 0.746002 0.157633
0.797314 0.1 -0.075 0.25772
0.797314 0.1 0.075 0.253771
0.756814 0.1 -0.2625 0.247589
0.756814 0.1 0.2625 0.234891
0.287374 0.1 -0.75 0.178675
0.574156 0.1 -0.5625 0.207338
0.574156 0.1 0.5625 0.186824
0 0.1 0.80701 0.168315
0 0.1 -0.80701 0.189661
0.714971 0.1 -0.375 0.235818
0.714971 0.1 0.375 0.219074
0.0363518 0.1 0.80701 0.168315
0.0363518 0.1 -0.80701 0.189661
0.797314 0.1 -0.15 0.257576
0.797314 0.1 0.15 0.249746
0.623803 0.1 -0.525 0.214984
0.623803 0.1 0.525 0.194691
0.219992 0.1 0.7875 0.1526
0.219992 0.1 -0.7875 0.173941
0.149792 0.1 0.80701 0.159528
0 0.1 0.825 0.166956
0 0.1 -0.825 0.188628
0.797314 0.1 -0.225 0.25602
0.797314 0.1 0.225 0.244451
0.756813 0.1 -0.3375 0.244308
0.756813 0.1 0.3375 0.228311
0.67013 0.1 0.4875 0.20286
0.67013 0.1 -0.4875 0.222832
0.835106 0.1 -0.0375 0.264789
0.835106 0.1 0.0375 0.262701
0.150379 0.1 -0.825 0.179987
0.835106 0.1 -0.1125 0.265355
0.835106 0.1 0.1125 0.259135
0 0.1 -0.84299 0.187597
0 0.1 0.84299 0.165598
0.0363518 0.1 -0.84299 0.187597
0.0363518 0.1 0.84299 0.165598
0.714971 0.1 -0.45 0.231253
0.714971 0.1 0.45 0.211696
0.411108 0.1 0.746002 0.161368
0.797314 0.1 -0.3 0.253103
0.797314 0.1 0.3 0.237988
0.467897 0.1 -0.7125 0.188969
0.467897 0.1 0.7125 0.166274
0.522865 0.1 0.675 0.172779
0.522865 0.1 -0.675 0.195433
0.411108 0.1 -0.75 0.183818
0.835106 0.1 -0.1875 0.264423
0.835107 0.1 0.1875 0.254172
0.286844 0.1 0.80701 0.152893
0.574156 0.1 0.6375 0.179574
0.574157 0.1 -0.6375 0.202123
0.350249 0.1 -0.7875 0.178929
0.350249 0.1 0.7875 0.156239
0.756813 0.1 -0.4125 0.239875
0.756814 0.1 0.4125 0.22085
0.623803 0.1 -0.6 0.209651
0.623803 0.1 0.6 0.18716
0.075776 0.1 0.8625 0.164128
0.075776 0.1 -0.8625 0.18648
0.871687 0.1 -3.2767e-18 0.271402
0.287374 0.1 -0.825 0.174165
0.871687 0.1 -0.075 0.272778
0.871687 0.1 0.075 0.268413
0.67013 0.1 -0.5625 0.217427
0.67013 0.1 0.5625 0.195079
0.835106 0.1 0.2625 0.247906
0.835106 0.1 -0.2625 0.261968
0.797314 0.1 -0.375 0.248923
0.797314 0.1 0.375 0.230501
0 0.1 -0.88201 0.185294
0 0.1 0.88201 0.162624
0.0363518 0.1 0.88201 0.162624
0.0363518 0.1 -0.88201 0.185294
0.871687 0.1 0.15 0.263881
0.871687 0.1 -0.15 0.272543
0.714971 0.1 0.525 0.20367
0.714971 0.1 -0.525 0.2258
0.219993 0.1 0.8625 0.146849
0.219992 0.1 -0.8625 0.169538
0 0.1 0.9 0.161241
0 0.1 -0.9 0.184203
0.756813 0.1 0.4875 0.212633
0.756814 0.1 -0.4875 0.234443
0.871687 0.1 0.225 0.257906
0.871687 0.1 -0.225 0.270685
0.835106 0.1 -0.3375 0.258122
0.835106 0.1 0.3375 0.240464
0.41063 0.1 0.80701 0.156102
0.90582 0.1 -0.0375 0.280001
0.905821 0.1 0.0375 0.277704
0.522865 0.1 0.746002 0.16584
0.150379 0.1 0.9 0.152386
0.90582 0.1 0.1125 0.273709
0.905821 0.1 -0.1125 0.280552
0.522865 0.1 -0.75 0.189902
0.574156 0.1 0.7125 0.172035
0.574156 0.1 -0.7125 0.196413
0.797314 0.1 -0.45 0.243595
0.797314 0.1 0.45 0.222147
0.467897 0.1 -0.7875 0.183638
0.467897 0.1 0.7875 0.159366
0.150379 0.1 -0.903998 0.17578
0 0.1 0.91799 0.159858
0 0.1 -0.91799 0.183112
0.0363518 0.1 0.91799 0.159858
0.0363518 0.1 -0.91799 0.183112
0.623803 0.1 0.675 0.179284
0.623803 0.1 -0.675 0.203748
0.411108 0.1 -0.825 0.178701
0.871687 0.1 0.3 0.250611
0.871687 0.1 -0.3 0.267255
0.67013 0.1 -0.6375 0.211363
0.67013 0.1 0.6375 0.186882
0.90582 0.1 -0.1875 0.279431
0.90582 0.1 0.1875 0.268122
0.350249 0.1 0.8625 0.149993
0.350249 0.1 -0.8625 0.174043
0.835106 0.1 -0.4125 0.252978
0.835106 0.1 0.4125 0.232026
0.714971 0.1 -0.6 0.219589
0.714971 0.1 0.6 0.195141
0.93886 0.1 -1.15648e-17 0.28642
0.075776 0.1 0.9375 0.15836
0.075776 0.1 -0.9375 0.181932
0.93886 0.1 0.075 0.283081
0.93886 0.1 -0.075 0.287932
0.756813 0.1 0.5625 0.203799
0.756814 0.1 -0.5625 0.228128
0.905821 0.1 -0.2625 0.276515
0.905821 0.1 0.2625 0.261056
0.287374 0.1 0.9 0.145416
0.287374 0.1 -0.903998 0.169925
0.871687 0.1 0.375 0.242158
0.871687 0.1 -0.375 0.262388
0.93886 0.1 -0.15 0.287643
0.93886 0.1 0.15 0.278006
0.797314 0.1 0.525 0.213076
0.797314 0.1 -0.525 0.237265
0 0.1 0.95701 0.156844
0 0.1 -0.95701 0.180695
0.0363518 0.1 0.95701 0.156844
0.0363518 0.1 -0.95701 0.180695
0.522433 0.1 0.80701 0.159948
0.219992 0.1 0.9375 0.141023
0.219992 0.1 -0.9375 0.164908
0.93886 0.1 0.225 0.271318
0.93886 0.1 -0.225 0.285509
0.90582 0.1 0.3375 0.252674
0.905821 0.1 -0.3375 0.272029
0.835106 0.1 -0.4875 0.246701
0.835107 0.1 0.4875 0.222758
0.969689 0.1 -0.0375 0.2951
0.969689 0.1 0.0375 0.292516
0.61613 0.1 0.75 0.171175
0.574156 0.1 -0.7875 0.190314
0.574156 0.1 0.7875 0.164312
0 0.1 0.975 0.155449
0 0.1 -0.975 0.179558
0.623803 0.1 -0.75 0.19739
0.969689 0.1 -0.1125 0.295708
0.969689 0.1 0.1125 0.288043
0.522865 0.1 -0.825 0.184033
0.67013 0.1 0.7125 0.178397
0.67013 0.1 -0.7125 0.204772
0.871687 0.1 -0.45 0.256219
0.871687 0.1 0.45 0.232739
0.467897 0.1 0.8625 0.152344
0.467897 0.1 -0.8625 0.178015
0.714971 0.1 -0.675 0.212757
0.714971 0.1 0.675 0.186256
0.93886 0.1 -0.3 0.281578
0.93886 0.1 0.3 0.263164
0.150379 0.1 0.975 0.146569
0.150379 0.1 -0.975 0.170833
0.969689 0.1 -0.1875 0.294516
0.969689 0.1 0.1875 0.281814
0.411108 0.1 0.9 0.147842
0.756813 0.1 0.6375 0.194533
0.756814 0.1 -0.6375 0.221095
0.990306 0.1 -2.19732e-17 0.298031
0 0.1 0.99299 0.154054
0 0.1 -0.99299 0.178421
0.411108 0.1 -0.903998 0.1739
0.990306 0.1 -0.075 0.299656
0.990306 0.1 0.075 0.294383
0.0363518 0.1 0.99299 0.154054
0.0363518 0.1 -0.99299 0.178421
0.90582 0.1 -0.4125 0.266057
0.905821 0.1 0.4125 0.243152
0.797314 0.1 -0.6 0.230087
0.797314 0.1 0.6 0.203465
0.350249 0.1 0.9375 0.14367
0.350249 0.1 -0.9375 0.168932
0.990306 0.1 0.15 0.288837
0.990306 0.1 -0.15 0.299333
0.969689 0.1 -0.2625 0.291215
0.969689 0.1 0.2625 0.273959
0.835106 0.1 -0.5625 0.239432
0.835106 0.1 0.5625 0.212824
0.93886 0.1 -0.375 0.276033
0.93886 0.1 0.375 0.25373
0.075776 0.1 1.0125 0.152544
0.075776 0.1 -1.0125 0.17719
0.990306 0.1 -0.225 0.296966
0.990306 0.1 0.225 0.281532
0.287374 0.1 0.975 0.139326
0.287374 0.1 -0.975 0.164442
0.871687 0.1 -0.525 0.248919
0.871687 0.1 0.525 0.222543
1.02149 0.1 -0.0369628 0.308067
1.02149 0.1 0.0369628 0.305286
0.969689 0.1 -0.3375 0.286203
0.969689 0.1 0.3375 0.264669
1.02149 0.1 -0.110888 0.308657
1.02149 0.1 0.110888 0.30042
0.90582 0.1 0.4875 0.232732
0.90582 0.1 -0.4875 0.258796
0.623803 0.1 0.819003 0.164479
0 0.1 1.03201 0.151026
0 0.1 -1.03201 0.175918
0.0363518 0.1 1.03201 0.151026
0.0363518 0.1 -1.03201 0.175918
0.67013 0.1 -0.7875 0.197772
0.67013 0.1 0.7875 0.169743
0.623803 0.1 -0.825 0.190687
0.990306 0.1 -0.3 0.292605
0.990306 0.1 0.3 0.272635
0.219992 0.1 -1.0125 0.160104
0.219993 0.1 1.0125 0.135167
0.574156 0.1 0.8625 0.156498
0.574157 0.1 -0.8625 0.183922
0.714971 0.1 -0.75 0.205446
0.714971 0.1 0.75 0.177146
1.02149 0.1 0.184814 0.293635
1.02149 0.1 -0.184814 0.307365
0.756814 0.1 -0.7125 0.213491
0.756814 0.1 0.7125 0.184974
0.522865 0.1 0.9 0.150738
0.93886 0.1 -0.45 0.269013
0.93886 0.1 0.45 0.243232
1.04168 0.1 0 0.312088
1.04168 0.1 -0.0729162 0.313833
1.04168 0.1 0.0729162 0.308176
0.522865 0.1 -0.903998 0.178581
0.797314 0.1 -0.675 0.222236
0.797314 0.1 0.675 0.193495
0.467897 0.1 0.9375 0.14528
0.467897 0.1 -0.9375 0.172169
0 0.1 1.05 0.14963
0 0.1 -1.05 0.174747
0.835106 0.1 -0.6375 0.231366
0.835106 0.1 0.6375 0.202449
1.04168 0.1 -0.145832 0.313556
1.04168 0.1 0.145832 0.302274
1.02149 0.1 -0.25874 0.303663
1.02149 0.1 0.25874 0.28507
0.969689 0.1 -0.4125 0.279509
0.969689 0.1 0.4125 0.254149
0.411108 0.1 0.975 0.141144
0.411108 0.1 -0.975 0.167762
0.871687 0.1 -0.6 0.240678
0.871687 0.1 0.6 0.211767
1.0579 0.1 -0.0360525 0.317806
1.0579 0.1 0.0360525 0.314889
0.990306 0.1 -0.375 0.286477
0.990306 0.1 0.375 0.262354
0.150379 0.1 1.05 0.140734
0.150379 0.1 -1.05 0.165993
1.0579 0.1 0.108157 0.309922
1.0579 0.1 -0.108157 0.318462
1.04168 0.1 -0.218749 0.311132
1.04168 0.1 0.218749 0.294524
0.90582 0.1 -0.5625 0.250432
0.90582 0.1 0.5625 0.221602
0 0.1 -1.06799 0.173577
0 0.1 1.06799 0.148234
0.0363518 0.1 -1.06799 0.173577
0.0363518 0.1 1.06799 0.148234
0.350249 0.1 1.0125 0.137334
0.350249 0.1 -1.0125 0.163653
1.0579 0.1 -0.180262 0.317324
1.0579 0.1 0.180262 0.303053
1.02149 0.1 -0.332665 0.298128
1.02149 0.1 0.332665 0.274934
0.93886 0.1 -0.525 0.260727
0.93886 0.1 0.525 0.23189
1.08012 0.1 5.49329e-18 0.322367
1.04168 0.1 -0.291665 0.306548
1.04168 0.1 0.291665 0.285098
1.08012 0.1 0.0709941 0.318303
1.08012 0.1 -0.0709941 0.324233
0.969689 0.1 -0.4875 0.271377
0.96969 0.1 0.4875 0.242645
1.0579 0.1 0.252367 0.294414
1.0579 0.1 -0.252367 0.31373
0.990306 0.1 -0.45 0.27872
0.990306 0.1 0.45 0.250928
0.287374 0.1 -1.05 0.159337
0.287374 0.1 1.05 0.133237
0.714971 0.1 0.821002 0.168632
1.08012 0.1 -0.141988 0.324078
1.08012 0.1 0.141988 0.312273
0.075776 0.1 1.0875 0.146723
0.075776 0.1 -1.0875 0.172311
0.714971 0.1 -0.825 0.197791
0.756813 0.1 -0.7875 0.205474
0.756814 0.1 0.7875 0.17527
0.67013 0.1 -0.8625 0.190487
0.67013 0.1 0.8625 0.161038
0.797314 0.1 -0.75 0.213878
0.797314 0.1 0.75 0.183318
0.623803 0.1 0.9 0.154688
0.835106 0.1 -0.7125 0.222695
0.835106 0.1 0.7125 0.1918
0.623803 0.1 -0.903998 0.184501
0.574156 0.1 0.9375 0.148684
0.574156 0.1 -0.9375 0.177338
1.02149 0.1 -0.406591 0.290695
1.02149 0.1 0.406591 0.263457
1.08012 0.1 -0.212982 0.321791
1.08012 0.1 0.212982 0.304401
1.10076 0.1 -0.0349809 0.329729
1.10076 0.1 0.0349809 0.326558
0.871687 0.1 -0.675 0.231706
0.871687 0.1 0.675 0.200621
1.04168 0.1 -0.364581 0.300082
1.04168 0.1 0.364581 0.274212
1.10076 0.1 -0.104943 0.330475
1.10076 0.1 0.104943 0.321373
0.522865 0.1 0.975 0.143316
0.522865 0.1 -0.975 0.171627
1.0579 0.1 -0.324472 0.308276
1.0579 0.1 0.324472 0.284207
0 0.1 -1.10701 0.171013
0 0.1 1.10701 0.145217
0.0363518 0.1 1.10701 0.145217
0.0363518 0.1 -1.10701 0.171013
0.90582 0.1 0.6375 0.209974
0.905821 0.1 -0.6375 0.241198
0.219992 0.1 1.0875 0.129321
0.219992 0.1 -1.0875 0.155174
0.93886 0.1 0.6 0.219944
0.93886 0.1 -0.6 0.251397
1.10076 0.1 -0.174905 0.329563
1.10076 0.1 0.174905 0.314273
0.467897 0.1 1.0125 0.13824
0.467897 0.1 -1.0125 0.166174
1.08012 0.1 -0.283976 0.317303
1.08012 0.1 0.283976 0.294853
1.11928 0.1 3.93204e-18 0.332952
0.990306 0.1 -0.525 0.269578
0.990306 0.1 0.525 0.238604
0.96969 0.1 -0.5625 0.262009
0.969689 0.1 0.5625 0.230357
1.11928 0.1 -0.0690357 0.334984
1.11928 0.1 0.0690357 0.328678
0 0.1 1.125 0.143832
0 0.1 -1.125 0.16982
0.411108 0.1 -1.05 0.162073
0.411108 0.1 1.05 0.13448
1.10076 0.1 0.244866 0.30539
1.10076 0.1 -0.244866 0.326052
1.11928 0.1 -0.138072 0.334961
1.11928 0.1 0.138072 0.322437
1.02149 0.1 0.480517 0.250911
1.02149 0.1 -0.480517 0.281685
1.0579 0.1 -0.396577 0.300878
1.0579 0.1 0.396577 0.272655
1.04168 0.1 -0.437497 0.291843
1.04168 0.1 0.437497 0.262112
0.150379 0.1 1.125 0.134922
0.150379 0.1 -1.125 0.161044
0.714971 0.1 0.88201 0.162033
1.08012 0.1 0.354971 0.28384
1.08012 0.1 -0.354971 0.310889
1.11928 0.1 -0.207107 0.332798
1.11928 0.1 0.207107 0.314337
0.350249 0.1 -1.0875 0.15827
0.350249 0.1 1.0875 0.131037
0 0.1 1.14299 0.142447
0 0.1 -1.14299 0.168627
0.0363518 0.1 1.14299 0.142447
0.0363518 0.1 -1.14299 0.168627
1.14316 0.1 -0.0339211 0.341383
1.14316 0.1 0.0339211 0.338026
0.797314 0.1 0.821002 0.173512
1.10076 0.1 -0.314829 0.320673
1.10076 0.1 0.314829 0.294925
0.797314 0.1 -0.825 0.20518
0.756814 0.1 -0.8625 0.197193
0.756814 0.1 0.8625 0.165555
1.14316 0.1 -0.101763 0.342309
1.14316 0.1 0.101763 0.332635
0.835106 0.1 -0.7875 0.213588
0.835106 0.1 0.7875 0.181037
0.871687 0.1 -0.75 0.222219
0.871687 0.1 0.75 0.189286
0.67013 0.1 0.9375 0.152383
0.67013 0.1 -0.9375 0.183032
0.90582 0.1 -0.7125 0.231314
0.905821 0.1 0.7125 0.198074
0.714971 0.1 -0.903998 0.190766
1.11928 0.1 0.276143 0.304545
1.11928 0.1 -0.276143 0.328375
1.14316 0.1 0.169605 0.32531
1.14316 0.1 -0.169605 0.341478
0.93886 0.1 -0.675 0.241277
0.93886 0.1 0.675 0.207648
1.15704 0.1 0 0.343404
1.0579 0.1 0.468682 0.260016
1.0579 0.1 -0.468682 0.291867
0.623803 0.1 0.975 0.146495
0.623803 0.1 -0.975 0.176675
0.990306 0.1 0.6 0.225664
0.990306 0.1 -0.6 0.259307
1.15704 0.1 -0.0671479 0.345624
1.15704 0.1 0.0671479 0.338906
1.04168 0.1 -0.510414 0.282109
1.04168 0.1 0.510414 0.249075
0.969689 0.1 -0.6375 0.251683
0.969689 0.1 0.6375 0.217645
1.08012 0.1 0.425965 0.271597
1.08012 0.1 -0.425965 0.302648
0.287374 0.1 -1.125 0.15414
0.287374 0.1 1.125 0.127191
1.02149 0.1 -0.554443 0.271325
1.02149 0.1 0.554443 0.237588
0.574156 0.1 1.0125 0.140942
0.574156 0.1 -1.0125 0.17064
1.15704 0.1 -0.134296 0.345761
1.15704 0.1 0.134296 0.332447
0.075776 0.1 1.1625 0.140948
0.075776 0.1 -1.1625 0.167336
1.10076 0.1 -0.384791 0.313245
1.10076 0.1 0.384791 0.283091
1.14316 0.1 -0.237448 0.3381
1.14316 0.1 0.237448 0.316187
1.11928 0.1 -0.345179 0.321965
1.11928 0.1 0.345179 0.293269
0.522865 0.1 1.05 0.135977
0.522865 0.1 -1.05 0.165246
1.15704 0.1 -0.201444 0.343754
1.15704 0.1 0.201444 0.324114
1.1744 0.1 -0.0331401 0.349927
1.1744 0.1 0.0331401 0.346324
1.1744 0.1 -0.0994202 0.350947
1.1744 0.1 0.0994202 0.340747
0 0.1 1.18201 0.139466
0 0.1 -1.18201 0.166027
0.0363518 0.1 1.18201 0.139466
0.0363518 0.1 -1.18201 0.166027
0.219992 0.1 1.1625 0.123516
0.219993 0.1 -1.1625 0.150165
1.14316 0.1 0.30529 0.305462
1.14316 0.1 -0.30529 0.332735
0.467897 0.1 1.0875 0.131286
0.467897 0.1 -1.0875 0.160104
1.1744 0.1 -0.1657 0.350356
1.1744 0.1 0.1657 0.333222
1.15704 0.1 -0.268592 0.339434
1.15704 0.1 0.268592 0.31408
1.0579 0.1 0.540787 0.246567
1.0579 0.1 -0.540787 0.281441
0.796996 0.1 0.88201 0.165349
1.08012 0.1 -0.496959 0.292851
1.08012 0.1 0.496959 0.258387
1.10076 0.1 0.454752 0.270136
1.10076 0.1 -0.454752 0.304132
1.11928 0.1 -0.414214 0.313653
1.11928 0.1 0.414214 0.280735
1.04168 0.1 -0.58333 0.271144
1.04168 0.1 0.58333 0.235373
1.1744 0.1 -0.231981 0.347088
1.1744 0.1 0.231981 0.323896
0.871687 0.1 0.821002 0.178423
0.411108 0.1 1.125 0.127905
0.411108 0.1 -1.125 0.156317
1.19808 0.1 1.73472e-17 0.354899
0.990306 0.1 0.675 0.212386
0.990306 0.1 -0.675 0.248206
1.02149 0.1 0.628368 0.223752
1.02149 0.1 -0.628368 0.259939
1.19808 0.1 -0.0650961 0.357355
1.19808 0.1 0.0650961 0.350149
0 0.1 1.2 0.138103
0 0.1 -1.2 0.164823
0.871687 0.1 -0.825 0.212415
0.905821 0.1 -0.7875 0.221058
0.90582 0.1 0.7875 0.18608
0.835106 0.1 -0.8625 0.204236
0.835106 0.1 0.8625 0.170321
0.93886 0.1 -0.75 0.230626
0.93886 0.1 0.75 0.195189
1.14316 0.1 -0.373132 0.325284
1.14316 0.1 0.373132 0.293347
0.969689 0.1 0.7125 0.204729
0.969689 0.1 -0.7125 0.240673
1.15704 0.1 -0.33574 0.333071
1.15704 0.1 0.33574 0.302548
0.756813 0.1 0.9375 0.155956
0.756814 0.1 -0.9375 0.18878
1.19808 0.1 0.130192 0.34345
1.19808 0.1 -0.130192 0.357702
0.797314 0.1 -0.903998 0.197245
0.714971 0.1 0.975 0.149714
0.714971 0.1 -0.975 0.181959
0.150379 0.1 1.2 0.129173
0.150379 0.1 -1.2 0.15603
1.20938 0.1 -0.0322656 0.359684
1.20938 0.1 0.0322656 0.355837
1.1744 0.1 -0.298261 0.341849
1.1744 0.1 0.298261 0.312968
1.20938 0.1 -0.0967968 0.360871
1.20938 0.1 0.0967968 0.350057
1.19808 0.1 -0.195288 0.355912
1.19808 0.1 0.195288 0.334872
0.350249 0.1 1.1625 0.124821
0.350249 0.1 -1.1625 0.152821
0.67013 0.1 1.0125 0.143851
0.67013 0.1 -1.0125 0.175498
0 0.1 1.21799 0.13674
0 0.1 -1.21799 0.163619
0.0363518 0.1 -1.21799 0.163619
0.0363518 0.1 1.21799 0.13674
1.11928 0.1 -0.48325 0.3037
1.11928 0.1 0.48325 0.267207
1.10076 0.1 -0.524714 0.293503
1.10076 0.1 0.524714 0.256337
1.20938 0.1 0.161328 0.342317
1.20938 0.1 -0.161328 0.360487
1.08012 0.1 0.567953 0.244477
1.08012 0.1 -0.567953 0.281745
0.623803 0.1 1.05 0.13844
0.623803 0.1 -1.05 0.169548
1.0579 0.1 -0.612892 0.269915
1.0579 0.1 0.612892 0.23256
1.15704 0.1 -0.402888 0.324733
1.15704 0.1 0.402888 0.28974
1.14316 0.1 0.440974 0.280081
1.14316 0.1 -0.440974 0.316046
1.19808 0.1 -0.260384 0.351776
1.19808 0.1 0.260384 0.324593
1.2267 0.1 3.57064e-18 0.362423
1.2267 0.1 -0.0636649 0.365054
1.2267 0.1 0.0636649 0.357496
1.1744 0.1 -0.364541 0.334447
1.1744 0.1 0.364541 0.300639
0.574156 0.1 1.0875 0.133347
0.574156 0.1 -1.0875 0.163907
1.20938 0.1 0.225859 0.332779
1.20938 0.1 -0.225859 0.357407
1.04168 0.1 -0.656246 0.259268
1.04168 0.1 0.656246 0.221271
1.2267 0.1 -0.12733 0.365555
1.2267 0.1 0.12733 0.350626
0.287374 0.1 1.2 0.121222
0.287374 0.1 -1.2 0.148891
1.02149 0.1 -0.702294 0.247859
1.02149 0.1 0.702294 0.209644
0.075776 0.1 -1.2375 0.162316
0.075776 0.1 1.2375 0.135264
0.871399 0.1 0.88201 0.169398
0.522865 0.1 1.125 0.128781
0.522865 0.1 -1.125 0.158839
1.2267 0.1 -0.190994 0.363927
1.2267 0.1 0.190994 0.341877
1.19808 0.1 -0.32548 0.345545
1.19808 0.1 0.32548 0.31281
0.990306 0.1 -0.75 0.236562
0.990306 0.1 0.75 0.198969
1.24274 0.1 -0.0314313 0.368801
1.24274 0.1 0.0314313 0.364726
1.20938 0.1 -0.29039 0.352317
1.20938 0.1 0.29039 0.321637
1.24274 0.1 -0.0942942 0.3702
1.24274 0.1 0.0942942 0.358738
0.93886 0.1 0.821002 0.183286
1.11928 0.1 -0.552285 0.292355
1.11928 0.1 0.552285 0.252948
1.15704 0.1 -0.470036 0.314671
1.15704 0.1 0.470036 0.275915
0.969689 0.1 -0.7875 0.229247
0.96969 0.1 0.7875 0.191727
0.93886 0.1 -0.825 0.219679
0.90582 0.1 0.8625 0.174192
0.905821 0.1 -0.8625 0.210591
1.1744 0.1 -0.430821 0.325205
1.1744 0.1 0.430821 0.287148
1.10076 0.1 -0.594676 0.281679
1.10076 0.1 0.594676 0.241946
1.14316 0.1 -0.508816 0.30521
1.14316 0.1 0.508816 0.265939
1.24274 0.1 -0.157157 0.36999
1.24274 0.1 0.157157 0.350784
1.2267 0.1 -0.254659 0.359942
1.2267 0.1 0.254659 0.331427
0.467897 0.1 1.1625 0.124475
0.467897 0.1 -1.1625 0.154012
1.08012 0.1 0.638947 0.230136
1.08012 0.1 -0.638947 0.269639
1.25511 0.1 -5.78241e-19 0.369893
0.835106 0.1 -0.9375 0.194811
0.835106 0.1 0.9375 0.159797
0.871687 0.1 -0.903998 0.20351
1.25511 0.1 0.0622446 0.364802
1.25511 0.1 -0.0622446 0.372687
0.219992 0.1 1.2375 0.117785
0.219992 0.1 -1.2375 0.145111
0 0.1 -1.25701 0.161006
0 0.1 1.25701 0.133815
0.0363518 0.1 -1.25701 0.161006
0.0363518 0.1 1.25701 0.133815
0.797314 0.1 0.975 0.15299
0.797314 0.1 -0.975 0.187384
1.19808 0.1 -0.390576 0.337268
1.19808 0.1 0.390576 0.299739
1.0579 0.1 -0.684997 0.257593
1.0579 0.1 0.684997 0.218283
1.20938 0.1 -0.354921 0.345023
1.20938 0.1 0.354921 0.309089
1.25511 0.1 0.124489 0.357773
1.25511 0.1 -0.124489 0.373339
1.24274 0.1 -0.220019 0.367142
1.24274 0.1 0.220019 0.341037
0.756813 0.1 1.0125 0.146563
0.756814 0.1 -1.0125 0.180349
1.2267 0.1 -0.318324 0.353828
1.2267 0.1 0.318324 0.31947
0.411108 0.1 1.2 0.121459
0.411108 0.1 -1.2 0.150546
1.25511 0.1 -0.186734 0.37186
1.25511 0.1 0.186734 0.348863
0.714971 0.1 1.05 0.140872
0.714971 0.1 -1.05 0.173998
1.04168 0.1 -0.729162 0.246807
1.04168 0.1 0.729162 0.207013
1.24274 0.1 0.282882 0.329683
1.24274 0.1 -0.282882 0.362211
0 0.1 1.275 0.132482
0 0.1 -1.275 0.159801
1.1744 0.1 0.497102 0.272767
1.1744 0.1 -0.497102 0.314284
1.15704 0.1 -0.537184 0.303132
1.15704 0.1 0.537184 0.261337
1.2756 0.1 -0.03061 0.377666
1.2756 0.1 0.03061 0.373397
0.67013 0.1 1.0875 0.135529
0.67013 0.1 -1.0875 0.167986
1.2756 0.1 -0.09183 0.379369
1.2756 0.1 0.09183 0.367187
1.25511 0.1 -0.248978 0.368027
1.25511 0.1 0.248978 0.338251
1.20938 0.1 0.419453 0.295367
1.20938 0.1 -0.419453 0.33581
1.11928 0.1 -0.621322 0.279925
1.11928 0.1 0.621322 0.238227
1.14316 0.1 -0.576659 0.293092
1.14316 0.1 0.576659 0.251175
1.19808 0.1 -0.455673 0.327181
1.19808 0.1 0.455673 0.285632
1.02149 0.1 0.776219 0.19552
1.02149 0.1 -0.776219 0.235368
0.150379 0.1 1.275 0.123522
0.150379 0.1 -1.275 0.150988
1.2756 0.1 -0.15305 0.379279
1.2756 0.1 0.15305 0.359019
1.2267 0.1 -0.381989 0.345625
1.2267 0.1 0.381989 0.306221
1.10076 0.1 -0.664638 0.268955
1.10076 0.1 0.664638 0.227254
0.350249 0.1 1.2375 0.118714
0.350249 0.1 -1.2375 0.147356
0.623803 0.1 1.125 0.130588
0.623803 0.1 -1.125 0.162445
0.9386 0.1 0.88201 0.173457
0.990306 0.1 0.825 0.186033
0.990306 0.1 -0.825 0.224639
1.24274 0.1 -0.345745 0.355065
1.24274 0.1 0.345745 0.316922
1.2906 0.1 0 0.379347
1.07933 0.1 0.709941 0.21562
1.2906 0.1 -0.0604698 0.382449
1.2906 0.1 0.0604698 0.373983
1.08012 0.1 -0.709941 0.256863
0 0.1 1.29299 0.131149
0 0.1 -1.29299 0.158596
1.25511 0.1 0.311223 0.32613
1.25511 0.1 -0.311223 0.362027
1.2756 0.1 -0.214269 0.376727
1.2756 0.1 0.214269 0.349062
0.0363518 0.1 1.29299 0.131149
0.0363518 0.1 -1.29299 0.158596
1.2906 0.1 -0.12094 0.383354
1.2906 0.1 0.12094 0.366684
0.574156 0.1 1.1625 0.125949
0.574157 0.1 -1.1625 0.157196
0.969689 0.1 0.8625 0.178918
0.969689 0.1 -0.8625 0.217634
1.0579 0.1 0.757102 0.203952
1.0579 0.1 -0.757102 0.244824
1.1744 0.1 -0.563382 0.302013
1.1744 0.1 0.563382 0.257751
1.20938 0.1 0.483984 0.28074
1.20938 0.1 -0.483984 0.324854
1.2906 0.1 -0.181409 0.382154
1.2906 0.1 0.181409 0.357507
0.93886 0.1 -0.903998 0.209787
0.90582 0.1 0.9375 0.162591
0.90582 0.1 -0.9375 0.200109
1.2756 0.1 0.275489 0.337499
1.2756 0.1 -0.275489 0.37197
1.2267 0.1 -0.445653 0.335561
1.2267 0.1 0.445653 0.291929
1.15704 0.1 -0.604332 0.290419
1.15704 0.1 0.604332 0.246265
1.19808 0.1 -0.520769 0.315524
1.19808 0.1 0.520769 0.270756
1.30646 0.1 0.0298385 0.381232
1.30646 0.1 -0.0298385 0.38571
0.287374 0.1 -1.275 0.143628
0.287374 0.1 1.275 0.115357
0.871687 0.1 0.975 0.155846
0.871687 0.1 -0.975 0.192557
1.24274 0.1 0.408607 0.30298
1.24274 0.1 -0.408607 0.345913
0.522865 0.1 1.2 0.12178
0.522865 0.1 -1.2 0.152465