# pMean  POINT_DATA 63840
# x  y  z  pMean
0 0.5 3.39583e-17 0.183259
0 0.5 -0.00617931 0.183352
0 0.5 0.00617931 0.183169
0.0124865 0.5 -0.00617931 0.183352
0.0124865 0.5 0.00617931 0.183169
0 0.5 -0.0688207 0.184047
0 0.5 0.0688207 0.182007
0.0124865 0.5 -0.0688207 0.184047
0.0124865 0.5 0.0688207 0.182007
0 0.5 -0.075 0.184091
0 0.5 0.075 0.181867
0 0.5 -0.0811793 0.184139
0 0.5 0.0811793 0.181731
0.0124865 0.5 -0.0811793 0.184139
0.0124865 0.5 0.0811793 0.181731
0.075776 0.5 -0.0375 0.183824
0.075776 0.5 0.0375 0.182715
0.075776 0.5 -0.1125 0.184379
0.075776 0.5 0.1125 0.18104
0 0.5 -0.143821 0.184368
0 0.5 0.143821 0.180107
0.0124865 0.5 -0.143821 0.184368
0.0124865 0.5 0.143821 0.180107
0 0.5 -0.15 0.184365
0 0.5 0.15 0.179923
0.151149 0.5 -0.00137318 0.183472
0 0.5 -0.156179 0.184366
0 0.5 0.156179 0.179741
0.0124865 0.5 -0.156179 0.184366
0.0124865 0.5 0.156179 0.179741
0.151149 0.5 0.075 0.1821
0.151149 0.5 -0.075 0.18436
0.075776 0.5 -0.1875 0.184371
0.075776 0.5 0.1875 0.178825
0.151149 0.5 0.15 0.180134
0.151149 0.5 -0.15 0.18464
0 0.5 -0.218821 0.184117
0 0.5 0.218821 0.177679
0.0124865 0.5 -0.218821 0.184117
0.0124865 0.5 0.218821 0.177679
0.219992 0.5 0.0375 0.183181
0.219993 0.5 -0.0375 0.184329
0 0.5 -0.225 0.184067
0 0.5 0.225 0.177453
0 0.5 -0.231179 0.184019
0 0.5 0.231179 0.177229
0.0124865 0.5 -0.231179 0.184019
0.0124865 0.5 0.231179 0.177229
0.219992 0.5 0.1125 0.181468
0.219993 0.5 -0.1125 0.184907
0.151149 0.5 -0.225 0.184337
0.151149 0.5 0.225 0.177635
0.075776 0.5 -0.2625 0.183782
0.075776 0.5 0.2625 0.176099
0.288069 0.5 -0.00137318 0.186704
0.219992 0.5 0.1875 0.179209
0.219993 0.5 -0.1875 0.1849
0 0.5 0.293821 0.174755
0 0.5 -0.293821 0.183304
0.0124865 0.5 -0.293821 0.183304
0.0124865 0.5 0.293821 0.174755
0.288069 0.5 -0.075 0.187651
0.288069 0.5 0.075 0.185268
0 0.5 -0.3 0.18321
0 0.5 0.3 0.17449
0 0.5 0.306179 0.174226
0 0.5 -0.306179 0.183118
0.0124865 0.5 -0.306179 0.183118
0.0124865 0.5 0.306179 0.174226
0.288069 0.5 -0.15 0.187917
0.288069 0.5 0.15 0.183171
0.151149 0.5 -0.3 0.183466
0.151149 0.5 0.3 0.174636
0.219992 0.5 -0.2625 0.184291
0.219992 0.5 0.2625 0.176414
0.075776 0.5 0.3375 0.172898
0.075776 0.5 -0.3375 0.182657
0.350249 0.5 -0.0375 0.190222
0.350249 0.5 0.0375 0.188989
0.288069 0.5 -0.225 0.187555
0.288069 0.5 0.225 0.180504
0.350249 0.5 0.1125 0.1871
0.350249 0.5 -0.1125 0.190801
0 0.5 0.368821 0.171373
0 0.5 -0.368821 0.181961
0.0124865 0.5 -0.368821 0.181961
0.0124865 0.5 0.368821 0.171373
0 0.5 -0.375 0.181824
0 0.5 0.375 0.171071
0 0.5 -0.381179 0.181689
0 0.5 0.381179 0.170772
0.0124865 0.5 -0.381179 0.181689
0.0124865 0.5 0.381179 0.170772
0.350249 0.5 -0.1875 0.190717
0.350249 0.5 0.1875 0.184588
0.219992 0.5 -0.3375 0.183134
0.219992 0.5 0.3375 0.173144
0.151149 0.5 -0.375 0.18206
0.151149 0.5 0.375 0.171179
0.411736 0.5 -0.00137318 0.193468
0.288069 0.5 -0.3 0.186583
0.288069 0.5 0.3 0.177302
0.411736 0.5 -0.075 0.194476
0.411736 0.5 0.075 0.191904
0.075776 0.5 -0.4125 0.181009
0.075776 0.5 0.4125 0.169262
0.350249 0.5 -0.2625 0.189976
0.350249 0.5 0.2625 0.1815
0.411736 0.5 -0.15 0.194706
0.411736 0.5 0.15 0.189585
0 0.5 -0.443821 0.180111
0 0.5 0.443821 0.167574
0.0124865 0.5 -0.443821 0.180111
0.0124865 0.5 0.443821 0.167574
0 0.5 -0.45 0.179933
0 0.5 0.45 0.16724
0 0.5 -0.456179 0.179758
0 0.5 0.456179 0.166908
0.0124865 0.5 -0.456179 0.179758
0.0124865 0.5 0.456179 0.166908
0.219992 0.5 -0.4125 0.181439
0.219993 0.5 0.4125 0.169429
0.411736 0.5 -0.225 0.19423
0.411736 0.5 0.225 0.18662
0.467897 0.5 0.0375 0.196591
0.467897 0.5 -0.0375 0.197931
0.288069 0.5 -0.375 0.185033
0.288069 0.5 0.375 0.173612
0.151149 0.5 -0.45 0.180142
0.151149 0.5 0.45 0.167306
0.467897 0.5 -0.1125 0.198518
0.467897 0.5 0.1125 0.194517
0.350249 0.5 0.3375 0.177868
0.350249 0.5 -0.3375 0.188606
0.075776 0.5 -0.4875 0.178876
0.075776 0.5 0.4875 0.165235
0.467897 0.5 -0.1875 0.198358
0.467897 0.5 0.1875 0.19173
0.411736 0.5 -0.3 0.193063
0.411736 0.5 0.3 0.183055
0 0.5 -0.518821 0.177789
0 0.5 0.518821 0.163404
0.0124865 0.5 0.518821 0.163404
0.0124865 0.5 -0.518821 0.177789
0.523432 0.5 -0.00137318 0.201852
0 0.5 -0.525 0.177574
0 0.5 0.525 0.163041
0.523432 0.5 -0.075 0.202937
0.523432 0.5 0.075 0.200131
0 0.5 -0.531179 0.177362
0 0.5 0.531179 0.162681
0.0124865 0.5 -0.531179 0.177362
0.0124865 0.5 0.531179 0.162681
0.288069 0.5 -0.45 0.182937
0.288069 0.5 0.45 0.169482
0.219992 0.5 -0.4875 0.179248
0.219993 0.5 0.4875 0.165319
0.467897 0.5 -0.2625 0.197448
0.467897 0.5 0.2625 0.188275
0.350249 0.5 -0.4125 0.186642
0.350249 0.5 0.4125 0.173748
0.523432 0.5 -0.15 0.203132
0.523432 0.5 0.15 0.197553
0.151149 0.5 -0.525 0.177751
0.151149 0.5 0.525 0.163064
0.411736 0.5 -0.375 0.191241
0.411736 0.5 0.375 0.178943
0.075776 0.5 -0.5625 0.176291
0.075776 0.5 0.5625 0.160865
0.523432 0.5 -0.225 0.202519
0.523432 0.5 0.225 0.194237
0.574156 0.5 -0.0375 0.207105
0.574156 0.5 0.0375 0.205632
0.467897 0.5 0.3375 0.184214
0.467897 0.5 -0.3375 0.195813
0.574156 0.5 -0.1125 0.207714
0.574156 0.5 0.1125 0.203318
0 0.5 -0.593821 0.175035
0 0.5 0.593821 0.158911
0.0124865 0.5 -0.593821 0.175035
0.0124865 0.5 0.593821 0.158911
0.288069 0.5 -0.525 0.180338
0.288069 0.5 0.525 0.164965
0 0.5 -0.6 0.174787
0 0.5 0.6 0.158524
0.350249 0.5 -0.4875 0.184128
0.350249 0.5 0.4875 0.169197
0.523432 0.5 -0.3 0.201115
0.523432 0.5 0.3 0.190238
0.219992 0.5 -0.5625 0.176596
0.219992 0.5 0.5625 0.160862
0.574156 0.5 -0.1875 0.207458
0.574156 0.5 0.1875 0.200197
0 0.5 -0.606179 0.174541
0 0.5 0.606179 0.15814
0.0124865 0.5 -0.606179 0.174541
0.0124865 0.5 0.606179 0.15814
0.411736 0.5 -0.45 0.18881
0.411736 0.5 0.45 0.174342
0.151149 0.5 -0.6 0.174926
0.151149 0.5 0.6 0.158501
0.62168 0.5 2.64545e-17 0.211264
0.467897 0.5 0.4125 0.179604
0.467897 0.5 -0.4125 0.19351
0.624316 0.5 0.0729402 0.209642
0.624316 0.5 -0.075 0.212736
0.574156 0.5 -0.2625 0.20634
0.574157 0.5 0.2625 0.196316
0.075776 0.5 -0.6375 0.1733
0.075776 0.5 0.6375 0.1562
0.624316 0.5 -0.15 0.212891
0.624316 0.5 0.15 0.206749
0.523432 0.5 -0.375 0.198968
0.523432 0.5 0.375 0.185622
0.350249 0.5 -0.5625 0.18111
0.350249 0.5 0.5625 0.164276
0.624316 0.5 -0.225 0.212118
0.624316 0.5 0.225 0.203014
0.288069 0.5 0.6 0.160117
0.288069 0.5 -0.6 0.177281
0.574156 0.5 -0.3375 0.204403
0.574156 0.5 0.3375 0.191743
0.411736 0.5 -0.525 0.185819
0.411736 0.5 0.525 0.169319
0 0.5 -0.668821 0.171892
0 0.5 0.668821 0.154144
0.0124865 0.5 -0.668821 0.171892
0.0124865 0.5 0.668821 0.154144
0.67013 0.5 0.0375 0.215864
0.67013 0.5 -0.0375 0.217495
0.219993 0.5 -0.6375 0.173529
0.219993 0.5 0.6375 0.156108
0 0.5 -0.675 0.171613
0 0.5 0.675 0.153738
0.467897 0.5 0.4875 0.174512
0.467897 0.5 -0.4875 0.190588
0.67013 0.5 -0.1125 0.218127
0.67013 0.5 0.1125 0.213265
0 0.5 -0.681179 0.171337
0 0.5 0.681179 0.153333
0.0124865 0.5 -0.681179 0.171337
0.0124865 0.5 0.681179 0.153333
0.523432 0.5 -0.45 0.196132
0.523432 0.5 0.45 0.18046
0.151149 0.5 -0.675 0.171711
0.151149 0.5 0.675 0.153668
0.624316 0.5 -0.3 0.210443
0.624316 0.5 0.3 0.198503
0.67013 0.5 0.1875 0.209744
0.67013 0.5 -0.1875 0.217762
0.574156 0.5 -0.4125 0.201708
0.574157 0.5 0.4125 0.186552
0.708171 0.5 1.88651e-17 0.22131
0.075776 0.5 -0.7125 0.169943
0.075776 0.5 0.7125 0.151291
0.715434 0.5 0.0736268 0.219944
0.715434 0.5 -0.075 0.223556
0.67013 0.5 0.2625 0.205352
0.67013 0.5 -0.2625 0.216417
0.350249 0.5 -0.6375 0.177644
0.350249 0.5 0.6375 0.159047
0.411736 0.5 -0.6 0.182326
0.411736 0.5 0.6 0.163942
0.624316 0.5 -0.375 0.207916
0.624316 0.5 0.375 0.193295
0.715434 0.5 -0.15 0.223669
0.715434 0.5 0.15 0.216864
0.467897 0.5 -0.5625 0.187106
0.467897 0.5 0.5625 0.169015
0.288069 0.5 -0.675 0.173817
0.288069 0.5 0.675 0.154996
0.523432 0.5 -0.525 0.192668
0.523432 0.5 0.525 0.174832
0 0.5 -0.743821 0.168403
0 0.5 0.743821 0.149155
0.0124865 0.5 -0.743821 0.168403
0.0124865 0.5 0.743821 0.149155
0.219992 0.5 0.7125 0.15111
0.219992 0.5 -0.7125 0.17009
0.715434 0.5 -0.225 0.222717
0.715434 0.5 0.225 0.212642
0 0.5 -0.75 0.168098
0 0.5 0.75 0.148732
0.67013 0.5 0.3375 0.200182
0.67013 0.5 -0.3375 0.214132
0.574156 0.5 -0.4875 0.198308
0.574156 0.5 0.4875 0.18083
0 0.5 -0.756179 0.167796
0 0.5 0.756179 0.148312
0.0124865 0.5 -0.756179 0.167796
0.0124865 0.5 0.756179 0.148312
0.756813 0.5 -0.0375 0.228721
0.756813 0.5 0.0375 0.22691
0.151149 0.5 -0.75 0.168153
0.151149 0.5 0.75 0.148616
0.756813 0.5 -0.1125 0.229385
0.756813 0.5 0.1125 0.223984
0.624316 0.5 -0.45 0.204605
0.624316 0.5 0.45 0.187477
0.715434 0.5 -0.3 0.220729
0.715434 0.5 0.3 0.207537
0.756813 0.5 0.1875 0.220002
0.756813 0.5 -0.1875 0.228907
0.67013 0.5 -0.4125 0.210965
0.67013 0.5 0.4125 0.194318
0.411736 0.5 -0.675 0.178394
0.411736 0.5 0.675 0.158279
0.467897 0.5 0.6375 0.163188
0.467897 0.5 -0.6375 0.18313
0.075776 0.5 -0.7875 0.16627
0.075776 0.5 0.7875 0.146189
0.350249 0.5 -0.7125 0.173785
0.350249 0.5 0.7125 0.153572
0.523432 0.5 -0.6 0.188648
0.523432 0.5 0.6 0.168821
0.797732 0.5 2.68882e-17 0.23373
0.756813 0.5 -0.2625 0.227296
0.756814 0.5 0.2625 0.215034
0.797732 0.5 0.0736268 0.231067
0.797732 0.5 -0.075 0.235031
0.288069 0.5 -0.75 0.169998
0.288069 0.5 0.75 0.149658
0.574156 0.5 -0.5625 0.194284
0.574157 0.5 0.5625 0.174664
0.715434 0.5 -0.375 0.217764
0.715434 0.5 0.375 0.201649
0.797732 0.5 -0.15 0.235108
0.797732 0.5 0.15 0.227537
0.624316 0.5 -0.525 0.200587
0.624316 0.5 0.525 0.181146
0.219992 0.5 -0.7875 0.166329
0.219992 0.5 0.7875 0.145917
0 0.5 -0.818821 0.164617
0 0.5 0.818821 0.143993
0.0124865 0.5 0.818821 0.143993
0.0124865 0.5 -0.818821 0.164617
0 0.5 -0.825 0.164289
0 0.5 0.825 0.143558
0.756813 0.5 0.3375 0.209172
0.756814 0.5 -0.3375 0.224604
0.67013 0.5 -0.4875 0.207007
0.67013 0.5 0.4875 0.187857
0.797732 0.5 -0.225 0.233961
0.797732 0.5 0.225 0.222769
0 0.5 -0.831179 0.163965
0 0.5 0.831179 0.143125
0.0124865 0.5 -0.831179 0.163965
0.0124865 0.5 0.831179 0.143125
0.835106 0.5 0.0375 0.238408
0.835106 0.5 -0.0375 0.240425
0.151149 0.5 -0.825 0.164298
0.151149 0.5 0.825 0.143395
0.835106 0.5 0.1125 0.235114
0.835106 0.5 -0.1125 0.241132
0.715434 0.5 -0.45 0.213905
0.715434 0.5 0.45 0.195084
0.797732 0.5 -0.3 0.231621
0.797732 0.5 0.3 0.217001
0.467897 0.5 0.7125 0.157105
0.467897 0.5 -0.7125 0.178732
0.523432 0.5 -0.675 0.184148
0.523432 0.5 0.675 0.162512
0.411736 0.5 -0.75 0.174087
0.411736 0.5 0.75 0.152401
0.835106 0.5 -0.1875 0.240547
0.835106 0.5 0.1875 0.230621
0.574156 0.5 -0.6375 0.189715
0.574157 0.5 0.6375 0.168148
0.350249 0.5 -0.7875 0.169593
0.350249 0.5 0.7875 0.147914
0.756813 0.5 -0.4125 0.220908
0.756814 0.5 0.4125 0.20255
0.075776 0.5 -0.8625 0.162325
0.075776 0.5 0.8625 0.140941
0.624316 0.5 0.6 0.174406
0.624316 0.5 -0.6 0.195951
0.872064 0.5 5.91974e-17 0.24549
0.870122 0.5 0.075 0.24217
0.288069 0.5 -0.825 0.165878
0.288069 0.5 0.825 0.144157
0.67013 0.5 -0.5625 0.202347
0.67013 0.5 0.5625 0.18092
0.872064 0.5 -0.075 0.246916
0.835106 0.5 -0.2625 0.238641
0.835106 0.5 0.2625 0.225015
0.797732 0.5 -0.375 0.228169
0.797732 0.5 0.375 0.210354
0.872064 0.5 0.14794 0.238539
0.872064 0.5 -0.15 0.24696
0.715434 0.5 -0.525 0.20925
0.715434 0.5 0.525 0.187956
0.219992 0.5 0.8625 0.140579
0.219993 0.5 -0.8625 0.162294
0 0.5 -0.893821 0.160578
0 0.5 0.893821 0.138704
0.0124865 0.5 -0.893821 0.160578
0.0124865 0.5 0.893821 0.138704
0 0.5 -0.9 0.160232
0 0.5 0.9 0.138261
0.756813 0.5 -0.4875 0.216317
0.756813 0.5 0.4875 0.195275
0.872064 0.5 -0.225 0.245604
0.872064 0.5 0.225 0.233172
0.835106 0.5 -0.3375 0.235507
0.835106 0.5 0.3375 0.218407
0 0.5 0.906179 0.13782
0 0.5 -0.906179 0.159888
0.0124865 0.5 -0.906179 0.159888
0.0124865 0.5 0.906179 0.13782
0.90582 0.5 -0.0375 0.252475
0.90582 0.5 0.0375 0.250237
0.151149 0.5 -0.9 0.160194
0.151149 0.5 0.9 0.138053
0.90582 0.5 -0.1125 0.253213
0.905821 0.5 0.1125 0.246542
0.523432 0.5 -0.75 0.17925
0.523432 0.5 0.75 0.155986
0.574156 0.5 -0.7125 0.184692
0.574156 0.5 0.7125 0.161373
0.797732 0.5 -0.45 0.223703
0.797732 0.5 0.45 0.202963
0.467897 0.5 0.7875 0.150842
0.467897 0.5 -0.7875 0.173984
0.624316 0.5 -0.675 0.190792
0.624316 0.5 0.675 0.167357
0.411736 0.5 -0.825 0.16947
0.411736 0.5 0.825 0.146372
0.872064 0.5 0.3 0.226682
0.872064 0.5 -0.3 0.24288
0.67013 0.5 -0.6375 0.197089
0.67013 0.5 0.6375 0.173616
0.90582 0.5 0.1875 0.241495
0.905821 0.5 -0.1875 0.252529
0.350249 0.5 -0.8625 0.165126
0.350249 0.5 0.8625 0.14213
0.835106 0.5 -0.4125 0.231238
0.835106 0.5 0.4125 0.210946
0.715434 0.5 -0.6 0.203907
0.715434 0.5 0.6 0.18039
0.939201 0.5 2.75387e-17 0.257287
0.075776 0.5 0.9375 0.135595
0.075776 0.5 -0.9375 0.158154
0.939111 0.5 0.075 0.253814
0.939201 0.5 -0.075 0.25885
0.756813 0.5 0.5625 0.187471
0.756814 0.5 -0.5625 0.210938
0.90582 0.5 0.2625 0.235195
0.905821 0.5 -0.2625 0.250289
0.288069 0.5 -0.9 0.161509
0.288069 0.5 0.9 0.138549
0.872064 0.5 -0.375 0.238899
0.872064 0.5 0.375 0.219208
0.939201 0.5 0.148627 0.249385
0.939201 0.5 -0.15 0.258882
0.797732 0.5 -0.525 0.218343
0.797732 0.5 0.525 0.194958
0.219992 0.5 0.9375 0.135146
0.219992 0.5 -0.9375 0.158032
0.939201 0.5 -0.225 0.257331
0.939201 0.5 0.225 0.243496
0.905821 0.5 -0.3375 0.246687
0.90582 0.5 0.3375 0.227778
0.835106 0.5 -0.4875 0.225959
0.835106 0.5 0.4875 0.202777
0 0.5 0.968821 0.133338
0 0.5 -0.968821 0.156331
0.0124865 0.5 -0.968821 0.156331
0.0124865 0.5 0.968821 0.133338
0.969689 0.5 -0.0375 0.264294
0.969689 0.5 0.0375 0.26179
0.574156 0.5 -0.7875 0.179302
0.574156 0.5 0.7875 0.154427
0 0.5 -0.975 0.15597
0 0.5 0.975 0.132891
0.624316 0.5 -0.75 0.18521
0.624316 0.5 0.75 0.160097
0.969689 0.5 -0.1125 0.265061
0.96969 0.5 0.1125 0.25765
0.523432 0.5 -0.825 0.174032
0.523432 0.5 0.825 0.149322
0.67013 0.5 0.7125 0.166054
0.67013 0.5 -0.7125 0.191339
0 0.5 -0.981179 0.155611
0 0.5 0.981179 0.132447
0.467897 0.5 0.8625 0.144468
0.467897 0.5 -0.8625 0.168956
0.0124865 0.5 -0.981179 0.155611
0.0124865 0.5 0.981179 0.132447
0.872064 0.5 -0.45 0.233772
0.872064 0.5 0.45 0.210915
0.715434 0.5 -0.675 0.197995
0.715434 0.5 0.675 0.17251
0.939201 0.5 -0.3 0.254205
0.939201 0.5 0.3 0.236238
0.151149 0.5 0.975 0.132641
0.151149 0.5 -0.975 0.155885
0.969689 0.5 -0.1875 0.264366
0.969689 0.5 0.1875 0.252012
0.756813 0.5 -0.6375 0.204898
0.756813 0.5 0.6375 0.179292
0.411736 0.5 -0.9 0.164607
0.411736 0.5 0.9 0.140257
0.90582 0.5 -0.4125 0.241789
0.90582 0.5 0.4125 0.2194
0.995005 0.5 0.0749309 0.263956
0.797732 0.5 -0.6 0.212219
0.797732 0.5 0.6 0.186491
1.00005 0.5 -8.47123e-18 0.268797
0.350249 0.5 -0.9375 0.16044
0.350249 0.5 0.9375 0.136278
1.00005 0.5 -0.0749309 0.270467
0.969689 0.5 -0.2625 0.261789
0.969689 0.5 0.2625 0.244981
0.835106 0.5 -0.5625 0.219799
0.835106 0.5 0.5625 0.194042
1.00005 0.5 -0.149862 0.270491
0.939201 0.5 -0.375 0.24967
0.939201 0.5 0.375 0.227893
1.00029 0.5 0.148988 0.259936
0.075776 0.5 -1.0125 0.153801
0.075776 0.5 1.0125 0.130201
0.288069 0.5 0.975 0.132887
0.288069 0.5 -0.975 0.156942
0.872064 0.5 -0.525 0.227643
0.872064 0.5 0.525 0.201967
1.00005 0.5 0.224793 0.253442
1.00005 0.5 -0.224793 0.268733
0.969689 0.5 0.3375 0.236724
0.96969 0.5 -0.3375 0.257717
1.0271 0.5 -0.0368226 0.276001
1.0271 0.5 0.0368226 0.273277
0.90582 0.5 0.4875 0.210269
0.905821 0.5 -0.4875 0.235753
1.0271 0.5 -0.110468 0.276739
1.0271 0.5 0.110468 0.268159
0.67013 0.5 0.7875 0.158336
0.67013 0.5 -0.7875 0.185209
0.624316 0.5 0.825 0.152719
0.624316 0.5 -0.825 0.179301
0.219993 0.5 -1.0125 0.153589
0.219993 0.5 1.0125 0.129677
0.574156 0.5 -0.8625 0.173632
0.574156 0.5 0.8625 0.147393
0.715434 0.5 -0.75 0.191637
0.715434 0.5 0.75 0.16443
0.756813 0.5 0.7125 0.170859
0.756814 0.5 -0.7125 0.198336
0.523432 0.5 -0.9 0.168573
0.523432 0.5 0.9 0.142595
0.939201 0.5 -0.45 0.243848
0.939201 0.5 0.45 0.218652
1.04168 0.5 0 0.278118
1.0271 0.5 -0.184113 0.276058
1.0271 0.5 0.184113 0.262581
0 0.5 -1.04382 0.15192
0 0.5 1.04382 0.127941
0.0124865 0.5 -1.04382 0.15192
0.0124865 0.5 1.04382 0.127941
1.00005 0.5 -0.299723 0.265144
1.00005 0.5 0.299723 0.245361
1.04168 0.5 -0.0729162 0.279861
1.04168 0.5 0.0729162 0.274417
0.797732 0.5 -0.675 0.205477
0.797732 0.5 0.675 0.177712
0.467897 0.5 0.9375 0.13805
0.467897 0.5 -0.9375 0.163717
0 0.5 -1.05 0.151548
0 0.5 1.05 0.127494
0.835106 0.5 -0.6375 0.212914
0.835106 0.5 0.6375 0.184928
1.04168 0.5 -0.145832 0.279927
1.04168 0.5 0.145832 0.269006
0.969689 0.5 -0.4125 0.252169
0.96969 0.5 0.4125 0.227423
0 0.5 -1.05618 0.151178
0 0.5 1.05618 0.127049
0.0124865 0.5 -1.05618 0.151178
0.0124865 0.5 1.05618 0.127049
1.05695 0.5 -0.0360764 0.282951
1.05695 0.5 0.0360764 0.280101
0.411736 0.5 -0.975 0.15956
0.411736 0.5 0.975 0.134113
0.872064 0.5 -0.6 0.220664
0.872064 0.5 0.6 0.192535
1.0271 0.5 -0.257759 0.273145
1.0271 0.5 0.257759 0.254885
0.151149 0.5 -1.05 0.151418
0.151149 0.5 1.05 0.127204
1.05695 0.5 0.108229 0.276015
1.05695 0.5 -0.108229 0.283657
1.04168 0.5 -0.218749 0.278169
1.04168 0.5 0.218749 0.262003
0.90582 0.5 -0.5625 0.228742
0.905821 0.5 0.5625 0.200547
1.00005 0.5 -0.374654 0.260001
1.00005 0.5 0.374654 0.236084
0.350249 0.5 1.0125 0.130408
0.350249 0.5 -1.0125 0.15559
1.05695 0.5 -0.180382 0.283112
1.05695 0.5 0.180382 0.269191
1.07319 0.5 0.0709442 0.280736
0.939201 0.5 -0.525 0.236916
0.939201 0.5 0.525 0.208711
1.0271 0.5 -0.331404 0.268634
1.0271 0.5 0.331404 0.245848
1.08112 0.5 3.23815e-17 0.287373
1.04168 0.5 -0.291665 0.274438
1.04168 0.5 0.291665 0.253553
1.08112 0.5 -0.0709442 0.289216
0.969689 0.5 -0.4875 0.245383
0.96969 0.5 0.4875 0.2173
1.05695 0.5 0.252535 0.261363
1.05695 0.5 -0.252535 0.280174
0.288069 0.5 -1.05 0.15223
0.288069 0.5 1.05 0.127216
0.075776 0.5 -1.0875 0.149309
0.075776 0.5 1.0875 0.1248
1.08112 0.5 -0.141888 0.289352
1.08145 0.5 0.140165 0.27757
0.715434 0.5 0.825 0.156262
0.715434 0.5 -0.825 0.184949
0.756813 0.5 0.7875 0.162293
0.756814 0.5 -0.7875 0.191381
0.67013 0.5 -0.8625 0.178803
0.67013 0.5 0.8625 0.150562
0.797732 0.5 -0.75 0.198265
0.797732 0.5 0.75 0.168753
0.624316 0.5 -0.9 0.173161
0.624316 0.5 0.9 0.145311
1.00005 0.5 -0.449585 0.253418
1.00005 0.5 0.449585 0.22583
0.835106 0.5 -0.7125 0.205468
0.835106 0.5 0.7125 0.175578
0.574156 0.5 -0.9375 0.167766
0.574157 0.5 0.9375 0.140347
1.10076 0.5 -0.0349809 0.293708
1.10076 0.5 0.0349809 0.290637
1.08112 0.5 -0.212832 0.287666
1.08112 0.5 0.212832 0.270762
0.872064 0.5 -0.675 0.213016
0.872064 0.5 0.675 0.182798
1.04168 0.5 -0.364581 0.269099
1.04168 0.5 0.364581 0.24386
1.0271 0.5 0.405049 0.235683
1.0271 0.5 -0.405049 0.262499
1.05695 0.5 -0.324688 0.275677
1.05695 0.5 0.324688 0.252182
1.10076 0.5 -0.104943 0.294453
1.10076 0.5 0.104943 0.285805
0.523432 0.5 0.975 0.135872
0.523432 0.5 -0.975 0.162946
0.90582 0.5 0.6375 0.190428
0.905821 0.5 -0.6375 0.220912
0.219992 0.5 1.0875 0.124197
0.219992 0.5 -1.0875 0.149015
1.11376 0.5 3.81639e-17 0.295306
0.939201 0.5 0.6 0.198279
0.939201 0.5 -0.6 0.229051
1.10076 0.5 -0.174905 0.294059
1.10076 0.5 0.174905 0.279314
0.467897 0.5 -1.0125 0.158333
0.467897 0.5 1.0125 0.131645
1.11376 0.5 -0.0693118 0.297256
1.11376 0.5 0.0693118 0.291289
1.08112 0.5 0.283777 0.26211
1.08112 0.5 -0.283777 0.283963
0 0.5 -1.11882 0.14739
0 0.5 1.11882 0.122554
0.0124865 0.5 -1.11882 0.14739
0.0124865 0.5 1.11882 0.122554
0.969689 0.5 -0.5625 0.237515
0.969689 0.5 0.5625 0.206546
1.11376 0.5 0.138624 0.285021
1.11376 0.5 -0.138624 0.297456
0 0.5 -1.125 0.14701
0 0.5 1.125 0.12211
1.10076 0.5 0.244866 0.271238
1.10076 0.5 -0.244866 0.291173
0.411736 0.5 -1.05 0.154386
0.411736 0.5 1.05 0.127994
1.05695 0.5 -0.396841 0.269473
1.05695 0.5 0.396841 0.241853
1.00005 0.5 -0.524516 0.245603
1.00005 0.5 0.524516 0.214835
1.04168 0.5 -0.437497 0.262225
1.04168 0.5 0.437497 0.23315
0 0.5 -1.13118 0.146633
0 0.5 1.13118 0.121668
0.0124865 0.5 -1.13118 0.146633
0.0124865 0.5 1.13118 0.121668
1.11376 0.5 -0.207935 0.295831
1.11376 0.5 0.207935 0.278179
1.0271 0.5 -0.478694 0.254993
1.0271 0.5 0.478694 0.224632
0.151149 0.5 -1.125 0.14684
0.151149 0.5 1.125 0.121777
1.08112 0.5 -0.354722 0.278594
1.08112 0.5 0.354722 0.252191
1.13882 0.5 -0.0340295 0.303078
1.13882 0.5 0.0340295 0.299857
0.350249 0.5 -1.0875 0.150631
0.350249 0.5 1.0875 0.124566
1.13882 0.5 -0.102088 0.303941
1.13882 0.5 0.102088 0.294924
1.10076 0.5 -0.314829 0.286701
1.10076 0.5 0.314829 0.26178
0.756813 0.5 -0.8625 0.184159
0.756814 0.5 0.8625 0.153713
0.797732 0.5 -0.825 0.190725
0.797732 0.5 0.825 0.159743
1.11376 0.5 -0.277247 0.292143
1.11376 0.5 0.277247 0.269307
0.835106 0.5 0.7875 0.166127
0.835106 0.5 -0.7875 0.197619
0.715434 0.5 -0.9 0.178044
0.715434 0.5 0.9 0.148105
0.872064 0.5 -0.75 0.204888
0.872064 0.5 0.75 0.172904
1.13882 0.5 0.170147 0.288107
1.13882 0.5 -0.170147 0.303564
0.67013 0.5 -0.9375 0.172218
0.67013 0.5 0.9375 0.142819
0.905821 0.5 -0.7125 0.212517
0.905821 0.5 0.7125 0.180097
1.05695 0.5 0.468994 0.230617
1.05695 0.5 -0.468994 0.261866
0.939201 0.5 -0.675 0.220466
0.939201 0.5 0.675 0.187572
0.624316 0.5 0.975 0.137948
0.624316 0.5 -0.975 0.166875
1.04168 0.5 -0.510414 0.254046
1.04168 0.5 0.510414 0.221671
0.969689 0.5 -0.6375 0.228793
0.96969 0.5 0.6375 0.195443
0.288069 0.5 -1.125 0.147421
0.288069 0.5 1.125 0.121571
1.16179 0.5 5.78241e-19 0.307663
1.08112 0.5 0.425666 0.241225
1.08112 0.5 -0.425666 0.271624
1.13882 0.5 -0.238206 0.300724
1.13882 0.5 0.238206 0.279756
1.16179 0.5 0.0669104 0.304093
1.16179 0.5 -0.0669104 0.30976
0.574156 0.5 -1.0125 0.161779
0.574156 0.5 1.0125 0.133355
0.075776 0.5 -1.1625 0.144725
0.075776 0.5 1.1625 0.119433
1.00005 0.5 -0.599447 0.236784
1.00005 0.5 0.599447 0.203345
1.10076 0.5 0.384791 0.251141
1.10076 0.5 -0.384791 0.280425
1.0271 0.5 -0.55234 0.246285
1.0271 0.5 0.55234 0.212952
1.11376 0.5 -0.346559 0.286736
1.11376 0.5 0.346559 0.259141
1.16179 0.5 -0.133821 0.310057
1.16179 0.5 0.133821 0.297411
0.523432 0.5 -1.05 0.157217
0.523432 0.5 1.05 0.129215
1.17463 0.5 -0.0331343 0.312545
1.17463 0.5 0.0331343 0.309106
1.17463 0.5 -0.0994029 0.313407
1.17463 0.5 0.0994029 0.303881
1.16179 0.5 -0.200731 0.308491
1.16179 0.5 0.200731 0.289686
1.13882 0.5 -0.306265 0.296181
1.13882 0.5 0.306265 0.269983
0.219992 0.5 -1.1625 0.144356
0.219992 0.5 1.1625 0.118741
0.467897 0.5 -1.0875 0.152864
0.467897 0.5 1.0875 0.125318
1.17463 0.5 0.165672 0.296922
1.17463 0.5 -0.165672 0.313201
1.05695 0.5 -0.541147 0.253015
1.05695 0.5 0.541147 0.21873
1.18772 0.5 -5.78241e-19 0.314399
1.11376 0.5 -0.41587 0.279666
1.11376 0.5 0.41587 0.247899
1.18772 0.5 -0.065614 0.316602
1.18772 0.5 0.065614 0.309647
1.08112 0.5 -0.49661 0.263294
1.08112 0.5 0.49661 0.22946
1.10076 0.5 -0.454752 0.272677
1.10076 0.5 0.454752 0.239558
1.18534 0.5 0.118202 0.303824
1.16179 0.5 -0.267642 0.304767
1.16179 0.5 0.267642 0.280427
0 0.5 -1.19382 0.142783
0 0.5 1.19382 0.117214
0.0124865 0.5 1.19382 0.117214
0.0124865 0.5 -1.19382 0.142783
1.04168 0.5 -0.58333 0.244793
1.04168 0.5 0.58333 0.209673
1.18772 0.5 -0.131228 0.316963
1.17463 0.5 -0.23194 0.31034
1.17463 0.5 0.23194 0.288288
0.411736 0.5 -1.125 0.149142
0.411736 0.5 1.125 0.12195
1.13882 0.5 -0.374324 0.289788
1.13882 0.5 0.374324 0.258992
0 0.5 -1.2 0.142399
0 0.5 1.2 0.116775
0.905821 0.5 0.7875 0.169688
0.905821 0.5 -0.7875 0.203731
0.872064 0.5 -0.825 0.196447
0.872064 0.5 0.825 0.163002
0.835106 0.5 0.8625 0.156721
0.835106 0.5 -0.8625 0.189523
0.939201 0.5 -0.75 0.211381
0.939201 0.5 0.75 0.176748
0.797732 0.5 -0.9 0.182993
0.797732 0.5 0.9 0.150803
1.0271 0.5 0.625985 0.200885
1.0271 0.5 -0.625985 0.236695
0.969689 0.5 0.7125 0.184198
0.96969 0.5 -0.7125 0.219428
1.18772 0.5 -0.196842 0.31546
1.18772 0.5 0.196842 0.295934
0.756814 0.5 -0.9375 0.176789
0.756814 0.5 0.9375 0.145219
0 0.5 1.20618 0.116338
0 0.5 -1.20618 0.142016
1.00005 0.5 -0.674378 0.22721
1.00005 0.5 0.674378 0.191595
0.0124865 0.5 1.20618 0.116338
0.0124865 0.5 -1.20618 0.142016
1.16179 0.5 -0.334552 0.299235
1.16179 0.5 0.334552 0.269821
0.715434 0.5 0.975 0.140045
0.715434 0.5 -0.975 0.171025
0.151149 0.5 -1.2 0.142189
0.151149 0.5 1.2 0.116399
1.20942 0.5 0.0322645 0.318678
1.20942 0.5 -0.0322645 0.322298
1.17463 0.5 -0.298209 0.305758
1.17463 0.5 0.298209 0.278194
1.20942 0.5 -0.0967935 0.323257
1.20942 0.5 0.0967935 0.313256
0.350249 0.5 -1.1625 0.145611
0.350249 0.5 1.1625 0.118787
0.67013 0.5 1.0125 0.135181
0.67013 0.5 -1.0125 0.165547
1.11376 0.5 0.485183 0.235829
1.11376 0.5 -0.485183 0.271184
1.18772 0.5 0.262456 0.286464
1.18772 0.5 -0.262456 0.311745
1.10076 0.5 -0.524714 0.263626
1.10076 0.5 0.524714 0.227287
1.20942 0.5 -0.161322 0.32313
1.20942 0.5 0.161322 0.30607
1.08112 0.5 -0.567554 0.253827
1.08112 0.5 0.567554 0.217141
0.624316 0.5 -1.05 0.160521
0.624316 0.5 1.05 0.130697
1.13882 0.5 -0.442383 0.281842
1.13882 0.5 0.442383 0.247019
1.05695 0.5 0.6133 0.206429
1.05695 0.5 -0.6133 0.243217
1.16179 0.5 -0.401463 0.291947
1.16179 0.5 0.401463 0.258089
0.574156 0.5 -1.0875 0.155739
0.574156 0.5 1.0875 0.126479
1.17463 0.5 0.364477 0.266845
1.17463 0.5 -0.364477 0.299238
1.20942 0.5 -0.225851 0.320346
1.20942 0.5 0.225851 0.297175
1.23036 0.5 -1.32995e-17 0.326757
1.2294 0.5 0.0634819 0.321235
1.04168 0.5 -0.656246 0.234753
1.04168 0.5 0.656246 0.197387
1.23036 0.5 -0.0634819 0.329115
1.18772 0.5 0.32807 0.275621
1.18772 0.5 -0.32807 0.306171
0.288069 0.5 -1.2 0.142553
0.288069 0.5 1.2 0.115992
1.23036 0.5 -0.126964 0.329579
1.23036 0.5 0.126964 0.315704
0.075776 0.5 -1.2375 0.140086
0.075776 0.5 1.2375 0.114129
0.523432 0.5 -1.125 0.15145
0.523432 0.5 1.125 0.122679
1.0271 0.5 -0.69963 0.226447
1.0271 0.5 0.69963 0.18864
1.24274 0.5 0.0314313 0.328327
1.24274 0.5 -0.0314313 0.332152
1.20942 0.5 0.29038 0.286781
1.20942 0.5 -0.29038 0.31573
1.11376 0.5 -0.554494 0.261515
1.11376 0.5 0.554494 0.223181
1.23036 0.5 -0.190445 0.32816
1.23036 0.5 0.190445 0.307522
1.24274 0.5 -0.0942942 0.33321
1.24274 0.5 0.0942942 0.322712
1.13882 0.5 0.510442 0.234327
1.13882 0.5 -0.510442 0.272531
0.969689 0.5 -0.7875 0.209668
0.969689 0.5 0.7875 0.172918
1.00005 0.5 -0.749309 0.217126
1.00005 0.5 0.749309 0.179764
0.939201 0.5 -0.825 0.202
0.939201 0.5 0.825 0.165971
0.90582 0.5 0.8625 0.159383
0.90582 0.5 -0.8625 0.19473
1.17463 0.5 -0.430746 0.291098
1.17463 0.5 0.430746 0.254475
1.10076 0.5 -0.594676 0.25354
1.10076 0.5 0.594676 0.214564
1.18772 0.5 -0.393684 0.298792
1.18772 0.5 0.393684 0.263626
1.24274 0.5 -0.157157 0.333169
1.24274 0.5 0.157157 0.315297
1.16179 0.5 -0.468373 0.283155
1.16179 0.5 0.468373 0.245482
0.467897 0.5 -1.1625 0.147364
0.467897 0.5 1.1625 0.119114
0.872064 0.5 -0.9 0.187847
0.872064 0.5 0.9 0.153237
1.25401 0.5 2.08167e-17 0.333409
0.835106 0.5 0.9375 0.147472
0.835106 0.5 -0.9375 0.181317
1.25401 0.5 -0.0622994 0.33589
1.25401 0.5 0.0622994 0.328441
1.08112 0.5 -0.638498 0.243506
1.08112 0.5 0.638498 0.204517
1.23036 0.5 -0.253927 0.324465
1.23036 0.5 0.253927 0.29771
0.219992 0.5 1.2375 0.11336
0.219992 0.5 -1.2375 0.139639
1.25309 0.5 0.121964 0.32206
1.05695 0.5 0.685452 0.193943
1.05695 0.5 -0.685452 0.232745
0.797732 0.5 0.975 0.142021
0.797732 0.5 -0.975 0.175188
1.25401 0.5 -0.124599 0.336424
1.20942 0.5 -0.354909 0.309127
1.20942 0.5 0.354909 0.275094
1.24274 0.5 -0.220019 0.330493
1.24274 0.5 0.220019 0.306137
0.756814 0.5 -1.0125 0.169373
0.756813 0.5 1.0125 0.136888
1.25401 0.5 -0.186898 0.335084
1.25401 0.5 0.186898 0.313701
0.411736 0.5 -1.2 0.143873
0.411736 0.5 1.2 0.116011
0 0.5 -1.26882 0.138137
0 0.5 1.26882 0.111951
0.0124865 0.5 1.26882 0.111951
0.0124865 0.5 -1.26882 0.138137
0.715434 0.5 -1.05 0.163982
0.715434 0.5 1.05 0.132154
1.23036 0.5 -0.31741 0.318806
1.23036 0.5 0.31741 0.286476
1.04168 0.5 -0.729162 0.224186
1.04168 0.5 0.729162 0.18502
1.18772 0.5 -0.459298 0.289855
1.18772 0.5 0.459298 0.250731
1.24274 0.5 -0.282882 0.325855
1.24274 0.5 0.282882 0.295443
0 0.5 -1.275 0.137752
0 0.5 1.275 0.11152
1.27472 0.5 -0.0306319 0.341994
1.27472 0.5 0.0306319 0.338026
1.17463 0.5 0.497015 0.241356
1.17463 0.5 -0.497015 0.281522
1.11376 0.5 -0.623806 0.250932
1.11376 0.5 0.623806 0.210213
1.13882 0.5 -0.578501 0.262138
1.13882 0.5 0.578501 0.221165
0.67013 0.5 -1.0875 0.158865
0.67013 0.5 1.0875 0.127712
1.27472 0.5 -0.0918959 0.343262
1.27472 0.5 0.0918959 0.330683
1.25401 0.5 -0.249197 0.331435
1.25401 0.5 0.249197 0.30369
1.16179 0.5 -0.535284 0.273099
1.16179 0.5 0.535284 0.232264
1.20942 0.5 -0.419438 0.300819
1.20942 0.5 0.419438 0.262346
0 0.5 -1.28118 0.137368
0 0.5 1.28118 0.11109
0.0124865 0.5 1.28118 0.11109
0.0124865 0.5 -1.28118 0.137368
1.27472 0.5 0.15316 0.324573
1.27472 0.5 -0.15316 0.343213
0.151149 0.5 -1.275 0.1375
0.151149 0.5 1.275 0.111104
1.0271 0.5 0.773275 0.176408
1.0271 0.5 -0.773275 0.215825
1.10076 0.5 0.664638 0.201666
1.10076 0.5 -0.664638 0.242705
0.350249 0.5 -1.2375 0.140559
0.350249 0.5 1.2375 0.113102
0.624316 0.5 -1.125 0.154168
0.624316 0.5 1.125 0.123615
1.23036 0.5 0.380892 0.274035
1.23036 0.5 -0.380892 0.311257
1.24274 0.5 -0.345745 0.319188
1.24274 0.5 0.345745 0.283416
1.2906 0.5 0 0.345131
1.2906 0.5 -0.0604698 0.347828
1.2906 0.5 0.0604698 0.340116
1.25401 0.5 -0.311497 0.32576
1.25401 0.5 0.311497 0.292231
1.27472 0.5 -0.214423 0.340695
1.27472 0.5 0.214423 0.315162
1.08112 0.5 0.709442 0.191809
1.08112 0.5 -0.709442 0.232615
1.00005 0.5 -0.824239 0.206779
1.00005 0.5 0.824239 0.168007
1.2906 0.5 -0.12094 0.348491
1.2906 0.5 0.12094 0.333275
0.574156 0.5 -1.1625 0.149707
0.574156 0.5 1.1625 0.119774
0.969689 0.5 -0.8625 0.199721
0.96969 0.5 0.8625 0.161828
1.18772 0.5 0.524912 0.237205
1.18772 0.5 -0.524912 0.279604
1.05695 0.5 -0.757605 0.221876
1.05695 0.5 0.757605 0.181475
0.939201 0.5 -0.9 0.192503
0.939201 0.5 0.9 0.15542
1.30091 0.5 -0.0299772 0.350413
1.30091 0.5 0.0299772 0.346316
1.20942 0.5 -0.483967 0.291001
1.20942 0.5 0.483967 0.248811
1.17463 0.5 -0.563284 0.270807
1.17463 0.5 0.563284 0.227748
1.2906 0.5 -0.181409 0.347285
1.2906 0.5 0.181409 0.324614
0.90582 0.5 0.9375 0.149315
0.90582 0.5 -0.9375 0.185667
1.30091 0.5 -0.0899316 0.351875
1.30091 0.5 0.0899316 0.337919
1.27472 0.5 0.275687 0.304178
1.27472 0.5 -0.275687 0.336039
0.288069 0.5 -1.275 0.137661
0.288069 0.5 1.275 0.110511
0.872064 0.5 -0.975 0.179227
0.872064 0.5 0.975 0.143709
1.23036 0.5 -0.444373 0.302049