# pMean  POINT_DATA 91129
# x  y  z  pMean
0 0 0 0.223157
0 0.00368111 0 0.222846
0 0.00749587 0 0.222175
0 0.0114491 0 0.221515
0 0.0155459 0 0.220921
0 0.0197915 0 0.22029
0 0.0241911 0 0.219575
0 0.0287506 0 0.218787
0 0.0334755 0 0.217951
0 0.038372 0 0.217085
0 0.0434463 0 0.216199
0 0.0487048 0 0.2153
0 0.0541543 0 0.214398
0 0.0598016 0 0.213518
0 0.0656539 0 0.212698
0 0.0717187 0 0.211938
0.075776 0.00184055 0 0.223157
0.075776 0.00558849 0 0.222535
0.075776 0.00947248 -3.46945e-18 0.221814
0.075776 0.0134975 -3.46945e-18 0.221217
0.075776 0.0176687 3.46945e-18 0.220625
0 0.0780037 0 0.211198
0.075776 0.0219913 3.46945e-18 0.219954
0.075776 0.0264709 3.46945e-18 0.219196
0.075776 0.031113 -3.46945e-18 0.218378
0.075776 0.0359237 -3.46945e-18 0.217524
0 0.0845169 0 0.210447
0.075776 0.0409092 0 0.216646
0.075776 0.0460755 -3.46945e-18 0.215751
0 0.0912666 0 0.209681
0.075776 0.0514296 -3.46945e-18 0.214848
0.075776 0.0569779 0 0.213947
0 0.0982613 0 0.208903
0.075776 0.0627278 0 0.213088
0.075776 0.0686863 0 0.212307
0 0.10551 0 0.208113
0.075776 0.0748612 3.46945e-18 0.21157
0.075776 0.0812603 -3.46945e-18 0.210826
0 0.113022 0 0.207312
0.075776 0.0878918 3.46945e-18 0.210067
0 0.120806 0 0.206496
0.075776 0.0947639 3.46945e-18 0.209294
0.075776 0.101886 -3.46945e-18 0.208511
0 0.128874 0 0.205663
0.075776 0.109266 3.46945e-18 0.207715
0 0.137234 0 0.204815
0.075776 0.116914 3.46945e-18 0.206907
0 0.145897 0 0.203977
0.075776 0.12484 0 0.206084
0.151552 0 0 0.206629
0.151552 0.00368111 0 0.206509
0.151552 0.00749587 0 0.206281
0.151552 0.0114491 0 0.206103
0.151552 0.0155459 0 0.205959
0.151552 0.0197915 0 0.20579
0.075776 0.133054 0 0.205241
0.151552 0.0241911 0 0.205575
0.151552 0.0287506 0 0.20532
0 0.154876 0 0.203183
0.151552 0.0334755 0 0.205035
0.151552 0.038372 0 0.20473
0.151552 0.0434463 0 0.20441
0.151552 0.0487048 0 0.204079
0.075776 0.141566 0 0.204389
0.151552 0.0541543 0 0.203741
0.151552 0.0598016 0 0.203406
0 0.16418 0 0.202445
0.151552 0.0656539 0 0.203094
0.151552 0.0717187 0 0.202803
0.075776 0.150387 0 0.203565
0.151552 0.0780037 0 0.202512
0.151552 0.0845169 0 0.202207
0 0.173822 0 0.201758
0.075776 0.159528 0 0.202801
0.151552 0.0912666 0 0.201885
0.151552 0.0982613 0 0.201548
0 0.183814 0 0.20112
0.151552 0.10551 0 0.201197
0.075776 0.169001 3.46945e-18 0.20209
0.151552 0.113022 0 0.200831
0.151552 0.120806 0 0.200448
0 0.194169 0 0.20052
0.075776 0.178818 3.46945e-18 0.201427
0.151552 0.128874 0 0.200047
0.075776 0.188992 3.46945e-18 0.200814
0.151552 0.137234 0 0.199629
0 0.2049 0 0.199928
0.151552 0.145897 0 0.199205
0.075776 0.199535 0 0.200226
0 0.21602 0 0.199314
0.151552 0.154876 0 0.198793
0.219992 0.00184055 0 0.191373
0.219992 0.00558849 0 0.191484
0.219992 0.00947248 -3.46945e-18 0.191736
0.219992 0.0134975 3.46945e-18 0.192017
0.219992 0.0176687 0 0.192279
0.219992 0.0219913 0 0.192531
0.219993 0.0264709 -3.46945e-18 0.192774
0.219992 0.031113 -3.46945e-18 0.193003
0.219992 0.0359238 3.46945e-18 0.19322
0.151552 0.16418 0 0.198396
0.075776 0.21046 0 0.19963
0.219992 0.0409092 3.46945e-18 0.193429
0.219992 0.0460755 0 0.193628
0.219993 0.0514296 -3.46945e-18 0.193815
0.219992 0.0569779 0 0.193991
0 0.227544 0 0.198653
0.219992 0.0627277 3.46945e-18 0.194154
0.219992 0.0686863 0 0.194303
0.151552 0.173822 0 0.198012
0.219992 0.0748612 3.46945e-18 0.194436
0.075776 0.221782 0 0.198998
0.219992 0.0812603 3.46945e-18 0.194551
0.219992 0.0878917 -3.46945e-18 0.194648
0.151552 0.183814 0 0.197638
7.47806e-17 0.239487 0 0.197938
0.219992 0.0947639 3.46945e-18 0.194727
0.219993 0.101886 3.46945e-18 0.194789
0.075776 0.233516 0 0.198308
0.219993 0.109266 0 0.194835
0.151552 0.194169 0 0.197269
0.219993 0.116914 0 0.194862
0 0.251863 0 0.197186
0.219993 0.12484 0 0.194868
0.151552 0.2049 0 0.196889
0.075776 0.245675 0 0.197568
0.219992 0.133054 3.46945e-18 0.194856
0.219992 0.141565 0 0.194825
0.151552 0.21602 0 0.196484
0 0.264688 0 0.196415
0.219992 0.150387 3.46945e-18 0.194774
0.075776 0.258275 3.46945e-18 0.196804
0.219992 0.159528 -3.46945e-18 0.194704
0.151552 0.227544 0 0.19604
0.219992 0.169001 3.46945e-18 0.194611
0 0.27798 0 0.195629
0.075776 0.271334 3.46945e-18 0.196026
0.151552 0.239487 3.70071e-18 0.195553
0.219992 0.178818 3.46945e-18 0.194494
0.288433 0 0 0.195358
0.288433 0.00368111 0 0.195398
0.288433 0.00749587 0 0.19552
0.288433 0.0114491 0 0.195697
0.288433 0.0155459 3.70071e-18 0.195882
0.288433 0.0197915 0 0.196064
0.288433 0.0241911 3.70071e-18 0.196244
0.288433 0.0287506 0 0.19642
0.219992 0.188991 0 0.194351
0.288433 0.0334755 0 0.19659
0.288433 0.038372 0 0.196755
0.288433 0.0434463 0 0.196914
7.47806e-17 0.291753 0 0.194825
0.288433 0.0487048 0 0.197067
0.288433 0.0541543 0 0.197211
0.151552 0.251863 0 0.195032
0.288433 0.0598016 3.70071e-18 0.197348
0.075776 0.284866 0 0.195232
0.288433 0.0656539 3.70071e-18 0.197476
0.219992 0.199534 0 0.194182
0.288433 0.0717187 0 0.197595
0.288433 0.0780037 0 0.197707
0.288433 0.0845169 0 0.197808
0.288433 0.0912666 0 0.197893
0.219992 0.21046 -3.46945e-18 0.193984
0.288433 0.0982613 0 0.197957
0.151552 0.264688 3.70071e-18 0.194485
0 0.306027 0 0.193997
0.288433 0.10551 0 0.198
0.075776 0.29889 3.46945e-18 0.194418
0.288433 0.113022 0 0.198022
0.219993 0.221782 0 0.193756
0.288433 0.120806 0 0.198027
0.288433 0.128874 0 0.19802
0.151552 0.27798 0 0.193918
0.288433 0.137234 0 0.198002
0 0.320819 0 0.193133
0.219992 0.233515 -3.46945e-18 0.193497
0.075776 0.313423 -3.46945e-18 0.193575
0.288433 0.145897 0 0.197966
0.288433 0.154876 0 0.197909
0.151552 0.291753 0 0.193331
0.219993 0.245675 0 0.193205
0.288433 0.16418 0 0.19783
0 0.336148 0 0.192239
0.288433 0.173822 0 0.197728
0.075776 0.328484 -3.46945e-18 0.192689
0.219993 0.258275 -3.46945e-18 0.192879
0.151552 0.306027 0 0.192717
0.288433 0.183814 0 0.197602
0.288433 0.194169 0 0.19745
0.219992 0.271334 3.46945e-18 0.192525
0.350249 0.00184056 -3.46945e-18 0.199051
0.350249 0.00558849 0 0.1991
0.350249 0.00947248 3.46945e-18 0.199186
0.350249 0.0134975 0 0.199287
0.350249 0.0176687 0 0.199396
0.350249 0.0219913 0 0.199513
0.350249 0.0264708 3.46945e-18 0.199632
0.350249 0.031113 0 0.199752
0 0.352034 0 0.191354
0.350249 0.0359238 0 0.199873
0.075776 0.344091 0 0.191788
0.350249 0.0409091 0 0.199993
0.350249 0.0460756 3.46945e-18 0.20011
0.288433 0.2049 0 0.197271
0.350249 0.0514296 0 0.200223
0.151552 0.320819 0 0.192063
0.350249 0.0569779 0 0.200331
0.350249 0.0627277 3.46945e-18 0.200434
0.350249 0.0686863 3.46945e-18 0.200534
0.350249 0.0748612 3.46945e-18 0.200634
0.350249 0.0812603 0 0.200734
0.219992 0.284867 0 0.192151
0.288433 0.21602 0 0.197063
0.350249 0.0878917 0 0.200827
0.350249 0.094764 0 0.2009
0.350249 0.101886 0 0.200944
0.350249 0.109266 0 0.200963
0.288433 0.227544 0 0.196825
0.075776 0.360265 3.46945e-18 0.190919
0 0.368496 0 0.190489
0.151552 0.336148 0 0.191368
0.350249 0.116914 3.46945e-18 0.200962
0.219992 0.29889 0 0.191752
0.370854 0.0241911 1.54074e-33 0.202082
0.350249 0.12484 0 0.200952
0.350249 0.133054 0 0.200941
0.288433 0.239487 -9.25154e-19 0.196556
0.350249 0.141566 3.46945e-18 0.200921
0.350249 0.150387 3.46945e-18 0.20088
0.288433 0.251863 0 0.196252
0.219992 0.313423 0 0.191316
0.151552 0.352034 0 0.190651
0.075776 0.377027 0 0.190059
0.350249 0.159528 0 0.200815
0 0.385557 0 0.189602
0.350249 0.169001 0 0.200727
0.288433 0.264688 0 0.195916
0.350249 0.178818 0 0.200616
0.219992 0.328484 0 0.190833
0.350249 0.188992 0 0.200481
0.151552 0.368496 0 0.189918
0.288433 0.27798 3.70071e-18 0.195549
0.075776 0.394397 0 0.189144
0.350249 0.199535 0 0.20032
7.47806e-17 0.403236 0 0.18865
0.219992 0.344091 0 0.190296
0.350249 0.21046 -3.46945e-18 0.200132
0.288433 0.291753 0 0.195152
0.412065 9.08189e-19 3.08149e-33 0.204652
0.412065 0.00368111 -2.31298e-18 0.204669
0.412065 0.00749587 -2.31298e-18 0.204717
0.412065 0.0114491 -2.31298e-18 0.204781
0.412065 0.0155459 -2.31298e-18 0.204852
0.412065 0.0197915 0 0.204925
0.412065 0.0241911 -3.08149e-33 0.205001
0.412065 0.0264709 0 0.20504
0.412065 0.0287506 -2.31298e-18 0.205079
0.412065 0.0334755 -2.31298e-18 0.20516
0.412065 0.038372 -2.31298e-18 0.205242
0.151552 0.385557 0 0.189151
0.412065 0.0434463 0 0.205326
0.350249 0.221782 0 0.199915
0.412065 0.0487048 0 0.205409
0.412065 0.0541543 -3.08149e-33 0.205492
0.412065 0.0569779 0 0.205533
0.412065 0.0598016 -2.31298e-18 0.205574
0.412065 0.0656539 -2.31298e-18 0.205653
0.412065 0.0717187 -2.31298e-18 0.20573
0.075776 0.412396 -3.46945e-18 0.188156
0.412065 0.0780037 -2.31298e-18 0.205798
0.288433 0.306027 0 0.194722
0.412065 0.0845169 -2.31298e-18 0.205851
0.350249 0.233516 3.46945e-18 0.199667
0 0.421557 0 0.187637
0.412065 0.0912666 -2.31298e-18 0.20588
0.219992 0.360265 3.46945e-18 0.189708
0.412065 0.0982613 0 0.205885
0.412065 0.10551 0 0.205871
0.412065 0.113022 -2.31298e-18 0.20584
0.350249 0.245675 0 0.199386
0.412065 0.120806 0 0.205796
0.151552 0.403236 0 0.188328
0.288433 0.320819 0 0.194251
0.412065 0.128874 -2.31298e-18 0.205742
0.412065 0.137234 0 0.205678
0.350249 0.258275 -3.46945e-18 0.19907
0.219992 0.377026 0 0.189075
0.412065 0.145897 -2.31298e-18 0.205601
0.075776 0.431051 0 0.187116
0.412065 0.154876 -2.31298e-18 0.205506
0 0.440544 0 0.186577
0.288433 0.336148 0 0.193734
0.350249 0.271334 0 0.198719
0.412065 0.16418 -2.31298e-18 0.205393
0.412065 0.173822 -2.31298e-18 0.205259
0.151552 0.421557 0 0.187448
0.412065 0.183814 -2.31298e-18 0.205105
0.350249 0.284867 3.46945e-18 0.198331
0.219992 0.394397 0 0.188396
0.288433 0.352034 3.70071e-18 0.193167
0.412065 0.194169 0 0.204928
0.075776 0.450382 0 0.186037
0.412065 0.2049 -2.31298e-18 0.204727
0 0.46022 0 0.18548
0.350249 0.29889 3.46945e-18 0.197908
0.412065 0.21602 0 0.204499
0.151552 0.440544 0 0.186516
0.219993 0.412396 3.46945e-18 0.187666
0.467897 0.00184056 -3.46945e-18 0.209862
0.467897 0.00558849 0 0.209885
0.288433 0.368496 0 0.19255
0.467897 0.00947248 0 0.20992
0.467897 0.0134975 0 0.209958
0.467897 0.0176687 3.46945e-18 0.209997
0.467897 0.0219913 -3.46945e-18 0.210033
0.467897 0.0264709 3.46945e-18 0.21007
0.467897 0.0311131 3.46945e-18 0.210112
0.467897 0.0359238 -3.46945e-18 0.210157
0.467897 0.038372 0 0.210764
0.467897 0.0409092 3.46945e-18 0.210206
0.350249 0.313423 0 0.197448
0.467897 0.0460755 0 0.210259
0.467897 0.0514296 3.46945e-18 0.210315
0.412065 0.227544 -2.31298e-18 0.204243
0.467897 0.0569779 0 0.210374
0.467897 0.0627277 -3.46945e-18 0.210434
0.467897 0.0686863 3.46945e-18 0.210492
0.467897 0.0748612 0 0.210542
0.467897 0.0812603 0 0.210571
0.467897 0.0878918 3.46945e-18 0.210566
0.075776 0.470415 3.46945e-18 0.184921
0.412065 0.239487 -2.31298e-18 0.203957
0.467897 0.0947639 -3.46945e-18 0.210529
0.467897 0.101886 3.46945e-18 0.210477
0.350249 0.328483 0 0.196945
0.467897 0.109266 0 0.210415
0 0.48061 0 0.184343
0.288433 0.385557 0 0.191885
0.467897 0.116914 0 0.210343
0.412065 0.251863 -2.31298e-18 0.203639
0.219992 0.431051 0 0.186881
0.467897 0.12484 0 0.210256
0.151552 0.46022 0 0.185535
0.467897 0.133054 3.46945e-18 0.210153
0.467897 0.141566 3.46945e-18 0.210038
0.412065 0.264688 -2.31298e-18 0.203287
0.350249 0.344091 -3.46945e-18 0.196398
0.467897 0.150387 3.46945e-18 0.209912
0.467897 0.154876 0 0.210522
0.467897 0.159528 3.46945e-18 0.209772
0.288433 0.403236 0 0.191168
0.075776 0.491175 0 0.183764
0.412065 0.27798 -2.31298e-18 0.202898
0.467897 0.169001 0 0.209616
0.467897 0.178818 3.46945e-18 0.209442
0.219992 0.450382 0 0.186037
6.73026e-17 0.501741 3.70071e-18 0.183162
0.350249 0.360265 0 0.195803
0.151552 0.48061 0 0.184505
0.467897 0.188991 0 0.209249
0.412065 0.291753 0 0.202472
0.467897 0.199535 0 0.209034
0.288433 0.421557 0 0.190395
0.467897 0.21046 0 0.208796
0.412065 0.306027 0 0.202007
0.350249 0.377027 0 0.195156
0.467897 0.221782 3.46945e-18 0.208533
0.075776 0.51269 0 0.182558
0.219993 0.470415 3.46945e-18 0.185135
0.467897 0.227544 0 0.209044
0.412065 0.320819 -2.31298e-18 0.2015
0.467897 0.233515 0 0.208242
6.73026e-17 0.523639 3.70071e-18 0.181931
0.523729 0 0 0.216067
0.523729 0.00368111 0 0.216076
0.523729 0.00749587 -2.31298e-18 0.2161
0.523729 0.0114491 0 0.216131
0.523729 0.0155459 0 0.216161
0.523729 0.0197915 -2.31298e-18 0.216187
0.151552 0.501741 0 0.183422
0.523729 0.0241911 0 0.216208
0.523729 0.0287506 0 0.216231
0.523729 0.0334755 0 0.216257
0.523729 0.038372 -3.08149e-33 0.216285
0.523729 0.0434463 0 0.216316
0.523729 0.0487048 0 0.216351
0.523729 0.0541543 0 0.216388
0.288433 0.440544 0 0.189564
0.523729 0.0598016 0 0.216428
0.350249 0.394397 -3.46945e-18 0.194455
0.523729 0.0656539 0 0.216468
0.467897 0.245675 0 0.207921
0.523729 0.0717187 0 0.216502
0.523729 0.0780037 0 0.216519
0.523729 0.0845169 0 0.216501
0.523729 0.0912666 0 0.216449
0.412065 0.336148 0 0.200948
0.523729 0.0982613 0 0.216378
0.523729 0.10551 -2.31298e-18 0.216295
0.467897 0.258275 -3.46945e-18 0.207569
0.523729 0.113022 0 0.216203
0.523729 0.120806 -3.08149e-33 0.216098
0.219993 0.491176 0 0.184175
0.523729 0.12484 0 0.216039
0.523729 0.128874 -2.31298e-18 0.215979
0.075776 0.534986 0 0.181303
0.467897 0.271334 3.46945e-18 0.207181
0.350249 0.412396 -3.46945e-18 0.193699
0.523729 0.137234 0 0.215846
0.412065 0.352034 -2.31298e-18 0.200348
0.288433 0.46022 0 0.188672
0.523729 0.145897 0 0.215699
0.151552 0.523639 0 0.18228
0.523729 0.154876 -3.08149e-33 0.215537
0 0.546332 0 0.18065
0.523729 0.159528 0 0.215448
0.467897 0.284867 -3.46945e-18 0.206756
0.523729 0.16418 -2.31298e-18 0.215359
0.523729 0.173822 0 0.215162
0.412065 0.368496 0 0.199696
0.523729 0.183814 0 0.214946
0.467897 0.29889 0 0.20629
0.350249 0.431051 -3.46945e-18 0.192883
0.219992 0.51269 0 0.18315
0.523729 0.194169 0 0.214708
0.288433 0.48061 0 0.187716
0.523729 0.2049 0 0.214446
0.467897 0.313423 3.46945e-18 0.205782
0.075776 0.558091 0 0.179995
0.412065 0.385557 0 0.198991
0.523729 0.21602 -3.08149e-33 0.21416
0.151552 0.546332 0 0.181074
0 0.569849 0 0.179314
0.350249 0.450382 3.46945e-18 0.192005
0.523729 0.227544 -3.08149e-33 0.213845
0.467897 0.328483 0 0.205229
0.523729 0.231525 1.54074e-33 0.213731
0.574156 0.00184056 0 0.221864
0.574156 0.00558849 0 0.221879
0.574157 0.00947248 0 0.221903
0.574156 0.0134975 -3.46945e-18 0.221931
0.574156 0.0176687 -3.46945e-18 0.221949
0.574156 0.0219913 0 0.221958
0.574156 0.0264708 -3.46945e-18 0.221965
0.574156 0.031113 0 0.221972
0.574156 0.0359238 -3.46945e-18 0.221982
0.574157 0.0409092 0 0.221994
0.523729 0.239487 3.70071e-18 0.213502
0.574156 0.0460755 -3.46945e-18 0.222008
0.574156 0.0514295 0 0.222025
0.412065 0.403236 0 0.19823
0.574157 0.0569779 0 0.222045
0.574156 0.0627277 0 0.222068
0.574156 0.0686863 0 0.22209
0.219992 0.534986 0 0.182053
0.288433 0.501741 0 0.186695
0.574156 0.0748612 3.46945e-18 0.222102
0.574156 0.0812603 0 0.222079
0.467897 0.344091 0 0.204628
0.574156 0.0878917 3.46945e-18 0.222012
0.523729 0.251863 0 0.213126
0.574157 0.0947639 0 0.221919
0.574156 0.101886 0 0.221817
0.574156 0.109266 0 0.221707
0.574156 0.116914 0 0.221585
0.412065 0.416977 -6.16298e-33 0.197614
0.350249 0.470415 0 0.191062
0.523729 0.264688 0 0.212717
0.075776 0.582034 0 0.17863
0.574156 0.12484 0 0.22145
0.574156 0.133054 3.46945e-18 0.221302
0.412065 0.421557 -2.31298e-18 0.197409
0.151552 0.569849 0 0.179801
0.467897 0.360265 -3.46945e-18 0.203976
0.574157 0.141566 -3.46945e-18 0.221138
0.523729 0.27798 0 0.212271
0.574156 0.150386 3.46945e-18 0.220959
0 0.594219 0 0.177918
0.574156 0.159528 -3.46945e-18 0.220762
0.574156 0.16418 0 0.221238
0.288433 0.523639 1.2326e-32 0.185603
0.574157 0.169001 0 0.220546
0.523729 0.291753 0 0.211785
0.219993 0.558091 3.46945e-18 0.18088
0.467897 0.377026 0 0.20327
0.574156 0.178818 3.46945e-18 0.22031
0.412065 0.440544 -2.31298e-18 0.196525
0.350249 0.491175 0 0.19005
0.574156 0.188992 3.46945e-18 0.220052
0.523729 0.306027 -3.08149e-33 0.211258
0.574157 0.199535 0 0.21977
0.574157 0.21046 0 0.219464
0.075776 0.606847 0 0.177203
0.467897 0.394397 0 0.202508
0.151552 0.594219 0 0.178459
0.523729 0.320819 0 0.210687
0.574157 0.221782 -3.46945e-18 0.219129
0.412065 0.46022 3.08149e-33 0.195576
0.288433 0.546332 0 0.184434
0 0.619475 0 0.176457
0.574156 0.233515 3.46945e-18 0.218766
0.350249 0.51269 3.46945e-18 0.188966
0.219992 0.582034 3.46945e-18 0.179627
0.523729 0.336148 0 0.210068
0.467897 0.412396 0 0.201686
0.574156 0.245675 0 0.218371
0.624584 0 0 0.228826
0.624584 0.00368111 0 0.228833
0.624584 0.00749587 0 0.228852
0.624584 0.0114491 0 0.228877
0.624584 0.0155459 0 0.2289
0.624584 0.0197915 0 0.22891
0.624584 0.0241911 -2.31298e-18 0.228909
0.624584 0.0287506 0 0.228905
0.624584 0.0334755 0 0.228903
0.624584 0.038372 0 0.228901
0.624584 0.0434463 -2.31298e-18 0.228901
0.624584 0.0487048 0 0.228902
0.624584 0.0541543 0 0.228905
0.624584 0.0598016 0 0.228909
0.624584 0.0656539 0 0.228912
0.624584 0.0717187 0 0.228907
0.624584 0.0780037 0 0.228873
0.574157 0.258276 3.46945e-18 0.217943
0.624584 0.0845169 0 0.228799
0.523729 0.352034 0 0.209399
0.624584 0.0912666 0 0.228693
0.624584 0.0982613 0 0.228573
0.412065 0.48061 3.08149e-33 0.194558
0.624584 0.10551 0 0.228442
0.624584 0.113022 -2.31298e-18 0.228299
0.574156 0.271334 0 0.217479
0.624584 0.120806 0 0.228142
0.467897 0.431051 0 0.200801
0.075776 0.632561 -3.46945e-18 0.175709
0.624584 0.128874 0 0.227971
0.151552 0.619475 0 0.177042
0.288433 0.569849 0 0.183187
0.350249 0.534985 0 0.187807
0.624584 0.137234 -2.31298e-18 0.227784
0.523729 0.368496 0 0.208677
0.574156 0.284866 -3.46945e-18 0.216977
0.624584 0.145897 0 0.22758
0.467897 0.440544 0 0.200858
0.624584 0.154876 0 0.227358
0.219992 0.606847 -3.46945e-18 0.178293
0 0.645647 0 0.174927
0.624584 0.16418 -3.08149e-33 0.227117
0.574156 0.29889 -3.46945e-18 0.216434
0.624584 0.173822 0 0.226855
0.412065 0.501741 1.54074e-33 0.193467
0.467897 0.450382 -3.46945e-18 0.199851
0.523729 0.385557 0 0.207898
0.624584 0.183814 0 0.22657
0.624584 0.194169 0 0.226262
0.574156 0.313423 0 0.215848
0.624584 0.2049 0 0.225928
0.350249 0.558091 3.46945e-18 0.186569
0.288433 0.594219 0 0.181856
0.624584 0.21602 0 0.225566
0.523729 0.403236 0 0.20706
0.574156 0.328483 -3.46945e-18 0.215215
0.151552 0.645647 0 0.175547
0.467897 0.470415 3.46945e-18 0.198832
0.075776 0.659208 0 0.174143
0.624584 0.227544 0 0.225175
0.412065 0.523639 0 0.192301
0.523729 0.41545 3.08149e-33 0.206459
0.624584 0.239487 3.70071e-18 0.224753
0.574156 0.344091 0 0.214533
0.219992 0.632561 0 0.176874
0.67013 0.00184055 0 0.235362
0.67013 0.00558849 0 0.235375
0.67013 0.00947248 0 0.235398
0.67013 0.0134975 0 0.235426
0.67013 0.0176687 -3.46945e-18 0.235442
0.67013 0.0219913 0 0.235439
0.67013 0.0264708 3.46945e-18 0.235426
0.67013 0.0311131 0 0.235411
0.67013 0.0359237 0 0.235398
0.67013 0.0409092 -3.46945e-18 0.235385
0.67013 0.0460755 0 0.235374
0.67013 0.0514296 3.46945e-18 0.235362
0.523729 0.421557 -2.31298e-18 0.206159
0.67013 0.056978 0 0.235349
0 0.67277 0 0.173324
0.67013 0.0627277 0 0.235336
0.624584 0.251863 0 0.224297
0.67013 0.0686863 0 0.235321
0.67013 0.0748612 3.46945e-18 0.235284
0.67013 0.0812603 0 0.2352
0.67013 0.0878917 0 0.235079
0.67013 0.0947639 3.46945e-18 0.234942
0.574156 0.360265 0 0.213799
0.67013 0.101886 0 0.234795
0.523729 0.431051 0 0.205675
0.624584 0.264688 0 0.223805
0.467897 0.491175 0 0.19774
0.67013 0.109266 3.46945e-18 0.234634
0.350249 0.582034 0 0.185248
0.67013 0.116914 0 0.234459
0.67013 0.12484 0 0.234268
0.67013 0.133054 0 0.234061
0.288433 0.619475 0 0.18044
0.624584 0.27798 -3.08149e-33 0.223275
0.412065 0.546332 1.54074e-33 0.191054
0.523729 0.440544 -3.08149e-33 0.205191
0.67013 0.141566 3.46945e-18 0.233836
0.685312 0.0241911 -7.70372e-34 0.238284
0.685312 0.0434463 -7.70372e-34 0.238205
0.67013 0.150387 0 0.233593
0.574156 0.377026 -3.46945e-18 0.213008
0.67013 0.159528 0 0.233329
0.624584 0.291753 0 0.222705
0.151552 0.67277 0 0.17397
0.075776 0.686823 0 0.172501
0.67013 0.169001 0 0.233045
0.67013 0.178818 0 0.232737
0.467897 0.51269 0 0.196572
0.685312 0.113022 -7.70372e-34 0.237262
0.219992 0.659208 0 0.175368
0.624584 0.306027 0 0.222091
0.67013 0.188991 0 0.232406
0.574156 0.394397 3.46945e-18 0.212159
0.523729 0.46022 0 0.204154
0.685312 0.137234 -7.70372e-34 0.236626
0.67013 0.199535 -3.46945e-18 0.232048
0.350249 0.606847 0 0.183841
0 0.700877 0 0.171641
0.624584 0.320819 0 0.221431
0.67013 0.21046 0 0.231663
0.412065 0.569849 -2.31298e-18 0.189724
0.67013 0.221782 -3.46945e-18 0.231248
0.574157 0.412396 0 0.211246
0.288433 0.645647 0 0.178934
0.624584 0.336148 -3.08149e-33 0.220722
0.67013 0.233515 3.46945e-18 0.230802
0.467897 0.534986 0 0.195324
0.523729 0.48061 0 0.203043
0.624584 0.344091 0 0.220341
0.67013 0.245675 0 0.230322
0.715676 4.54095e-19 0 0.242919
0.715676 0.00368111 0 0.242925
0.715676 0.00749587 0 0.242943
0.715676 0.0114491 0 0.242968
0.715676 0.0155459 0 0.242988
0.715676 0.0197915 0 0.242989
0.715676 0.0241911 0 0.242972
0.715676 0.0287506 0 0.242946
0.715676 0.0334755 0 0.242917
0.715676 0.038372 0 0.242887
0.624584 0.352034 -2.31298e-18 0.219961
0.715676 0.0434463 0 0.242856
0.151552 0.700877 0 0.172307
0.715676 0.0487048 0 0.242826
0.715676 0.0541543 0 0.242794
0.574156 0.43105 0 0.210267
0.715676 0.0598016 0 0.242762
0.67013 0.258275 0 0.229807
0.715676 0.0656539 0 0.242725
0.715676 0.0717187 0 0.242673
0.075776 0.715441 0 0.170777
0.715676 0.0780037 0 0.242583
0.715676 0.0845169 0 0.242452
0.219992 0.686824 0 0.173771
0.715676 0.0912666 0 0.242296
0.715676 0.0982613 0 0.242126
0.67013 0.271334 -3.46945e-18 0.229254
0.350249 0.632561 -3.46945e-18 0.182342
0.412065 0.594219 3.08149e-33 0.188305
0.715676 0.10551 0 0.241943
0.715676 0.113022 0 0.241744
0.624584 0.368496 0 0.219144
0.523729 0.501741 0 0.201855
0.715676 0.120806 0 0.241529
0.715676 0.128874 0 0.241297
0.67013 0.284867 0 0.22866
0.467897 0.558091 3.46945e-18 0.193991
0.715676 0.137234 0 0.241047
0.574156 0.450382 0 0.209218
0 0.730005 0 0.169875
0.715676 0.145897 0 0.240777
0.288433 0.67277 0 0.177335
0.715676 0.154876 0 0.240486
0.67013 0.29889 0 0.228023
0.624584 0.385557 0 0.218268
0.715676 0.16418 -9.25187e-19 0.240173
0.715676 0.173822 0 0.239837
0.715676 0.183814 0 0.239476
0.67013 0.313423 0 0.22734
0.523729 0.523639 0 0.200586
0.715676 0.194169 0 0.239089
0.574156 0.470415 3.46945e-18 0.208096
0.624584 0.403236 0 0.217329
0.743101 0.0241911 -7.70372e-34 0.248008
0.412065 0.619475 3.08149e-33 0.186794
0.715676 0.2049 0 0.238673
0.151552 0.730005 0 0.170554
0.67013 0.328484 3.46945e-18 0.226609
0.350249 0.659208 0 0.180749
0.467897 0.582034 0 0.192569
0.715676 0.21602 0 0.238228
0.219992 0.715441 0 0.172079
0.075776 0.745097 -3.46945e-18 0.168968
0.715676 0.227544 0 0.23775
0.67013 0.344091 0 0.225825
0.624584 0.421557 0 0.216324
0.743101 0.128874 -7.70372e-34 0.246024
0.715676 0.239487 3.70071e-18 0.237239
0.574156 0.491175 0 0.206895
0.756814 0.00184055 0 0.250048
0.523729 0.546332 0 0.19923
0.756813 0.00558849 0 0.250061
0.756813 0.00947248 0 0.250084
0.756814 0.0134975 -3.46945e-18 0.250111
0.756814 0.0155459 0 0.250556
0.756814 0.0176687 0 0.250121
0.756814 0.0219913 0 0.250104
0.756814 0.0264709 0 0.250069
0.756814 0.031113 -3.46945e-18 0.250027
0.756813 0.0359238 -3.46945e-18 0.249983
0.288433 0.700877 0 0.175639
0.756814 0.0409092 -3.46945e-18 0.249936
0.756813 0.0460755 3.46945e-18 0.249888
0.756813 0.0514296 0 0.249839
0.715676 0.251863 0 0.236693
0.756813 0.0569779 0 0.249788
0.756814 0.0627277 -3.46945e-18 0.249736
0.756814 0.0686863 -3.46945e-18 0.249675
0 0.76019 0 0.16802
0.756814 0.0748612 0 0.249582
0.67013 0.360265 3.46945e-18 0.224987
0.756814 0.0812603 -3.46945e-18 0.24944
0.756814 0.0878917 -3.46945e-18 0.249265
0.756814 0.0947639 -3.46945e-18 0.249076
0.715676 0.264688 0 0.236108
0.756813 0.101886 0 0.248874
0.624584 0.440544 0 0.215249
0.756813 0.109266 3.46945e-18 0.248655
0.756813 0.116914 3.46945e-18 0.248419
0.412065 0.645647 0 0.185187
0.467897 0.606847 0 0.191053
0.756814 0.120806 0 0.248657
0.756813 0.12484 0 0.248166
0.715676 0.27798 0 0.235482
0.756814 0.133054 -3.46945e-18 0.247893
0.67013 0.377026 -3.46945e-18 0.22409
0.756814 0.137234 0 0.248099
0.574156 0.51269 0 0.205612
0.756813 0.141566 3.46945e-18 0.247599
0.685312 0.352034 -7.70372e-34 0.227756
0.743101 0.2049 -7.70372e-34 0.243175
0.350249 0.686824 0 0.179057
0.756814 0.150387 0 0.247285
0.756814 0.154876 0 0.247458
0.715676 0.291753 0 0.234814
0.756814 0.159528 -3.46945e-18 0.246948
0.523729 0.569849 0 0.197784
0.72743 0.264688 0 0.237967
0.756814 0.16418 0 0.247104
0.151552 0.76019 0 0.168707
0.756813 0.169001 3.46945e-18 0.246587
0.624584 0.46022 0 0.214099
0.219993 0.745097 0 0.17029
0.67013 0.394396 0 0.223131
0.756813 0.178818 -3.46945e-18 0.2462
0.715676 0.306027 0 0.2341
0.075776 0.775831 0 0.167067
0.756813 0.188991 0 0.245787
0.756814 0.199535 0 0.245345
0.715676 0.320819 0 0.233337
0.574156 0.534985 0 0.204242
0.288433 0.730005 0 0.173842
0.756813 0.21046 0 0.244873
0.467897 0.632561 0 0.189439
0.67013 0.412396 -3.46945e-18 0.222106
0.624584 0.48061 -3.08149e-33 0.212871
0.756814 0.221782 0 0.244369
0.412065 0.67277 3.08149e-33 0.183478
0.715676 0.336148 0 0.232523
0 0.791472 0 0.166071
0.756813 0.233516 3.46945e-18 0.243831
0.523729 0.594219 0 0.196243
0.624584 0.487654 1.54074e-33 0.212434
0.756814 0.245675 3.46945e-18 0.243256
0.350249 0.715441 3.46945e-18 0.177262
0.67013 0.43105 0 0.22101
0.715676 0.352034 -9.25187e-19 0.231654
0.797951 9.08189e-19 -3.08149e-33 0.258057
0.797951 0.00368111 2.31298e-18 0.258063
0.797951 0.00749587 2.31298e-18 0.258082
0.797951 0.0114491 2.31298e-18 0.258107
0.797951 0.0141803 7.70372e-34 0.258118
0.797951 0.0155459 0 0.258124
0.797951 0.0169611 7.70372e-34 0.258121
0.797951 0.0197915 2.31298e-18 0.258115
0.797951 0.0219913 0 0.258097
0.797951 0.0241911 3.08149e-33 0.258079
0.797951 0.0264709 0 0.258052
0.797951 0.0287506 -3.08149e-33 0.258025
0.797951 0.0334755 2.31298e-18 0.257962
0.797951 0.038372 2.31298e-18 0.257894
0.797951 0.0434463 2.31298e-18 0.257823
0.797951 0.0487048 0 0.257748
0.756813 0.258275 -3.46945e-18 0.242644
0.797951 0.0541543 2.31298e-18 0.257672
0.797951 0.0598016 2.31298e-18 0.257592
0.797951 0.0656539 2.31298e-18 0.257503
0.574156 0.55809 0 0.202781
0.624584 0.501741 0 0.21156
0.797951 0.0717187 2.31298e-18 0.25739
0.797951 0.0780037 -3.08149e-33 0.257234
0.797951 0.0845169 2.31298e-18 0.257039
0.797951 0.0912666 -3.08149e-33 0.256822
0.797951 0.0982613 2.31298e-18 0.256589
0.756813 0.271334 0 0.241992
0.797951 0.10551 2.31298e-18 0.256339
0.715676 0.368496 0 0.230726
0.151552 0.791472 0 0.16676
0.797951 0.113022 2.31298e-18 0.256071
0.219992 0.775831 3.46945e-18 0.168398
0.797951 0.118211 7.70372e-34 0.25588
0.770526 0.239487 1.54074e-33 0.246051
0.797951 0.120806 0 0.255785
0.67013 0.450382 3.46945e-18 0.219841
0.797951 0.128874 3.08149e-33 0.255479
0.467897 0.659208 0 0.187723
0.756813 0.284866 -3.46945e-18 0.241296
0.743101 0.320819 -7.70372e-34 0.237533
0.797951 0.137234 0 0.255152
0.797951 0.141566 0 0.254977
0.797951 0.145897 -9.25187e-19 0.254803
0.523729 0.619475 0 0.194602
0.075776 0.807681 0 0.16507
0.797951 0.150387 0 0.254617
0.797951 0.154876 0 0.254431
0.715676 0.385557 0 0.229737
0.412065 0.700877 3.08149e-33 0.181662
0.288433 0.76019 0 0.17194
0.756813 0.29889 0 0.240555
0.797951 0.16418 0 0.254035
0.624584 0.523639 0 0.210162
0.797951 0.167394 7.70372e-34 0.253894
0.797951 0.173822 2.31298e-18 0.253613
0.574156 0.582034 0 0.201223
0.67013 0.470415 0 0.218593
0.797951 0.183814 2.31298e-18 0.253164
0.756813 0.313423 -3.46945e-18 0.239766
0.797951 0.194169 -9.25187e-19 0.252686
0.715676 0.403236 0 0.228682
0.151552 0.807681 0 0.165735
0.797951 0.197746 -7.70372e-34 0.252517
0.350249 0.745097 0 0.175358
0.797951 0.2049 3.08149e-33 0.252178
0 0.823889 0 0.164024
0.756813 0.328483 -3.46945e-18 0.238926
0.797951 0.21046 0 0.251909
0.797951 0.21602 -3.08149e-33 0.251639
0.797951 0.223703 7.70372e-34 0.251256
0.797951 0.227544 9.25187e-19 0.251065
0.624584 0.546332 0 0.20867
0.715676 0.421557 0 0.227557
0.67013 0.491176 -3.46945e-18 0.217261
0.797951 0.231525 7.70372e-34 0.250862
0.467897 0.686824 -3.46945e-18 0.185898
0.523729 0.645647 0 0.192855
0.756813 0.344091 -3.46945e-18 0.238031
0.822721 0.120806 7.70372e-34 0.260697
0.797951 0.239487 -3.08149e-33 0.250456
0.822721 0.137234 7.70372e-34 0.260008
0.835106 0.00184056 0 0.265652
0.835106 0.00558849 0 0.265666
0.835106 0.00947248 0 0.26569
0.835106 0.0134975 0 0.265717
0.835107 0.0176687 0 0.265722
0.835106 0.0219913 -3.46945e-18 0.26569
0.574156 0.606847 3.46945e-18 0.199564
0.835106 0.0241911 0 0.265926
0.835106 0.0264709 -3.46945e-18 0.26563
0.822721 0.145897 -7.70372e-34 0.259631
0.835106 0.031113 3.46945e-18 0.265552
0.835106 0.0359238 3.46945e-18 0.265466
0.835106 0.0409092 -3.46945e-18 0.265374
0.835106 0.0460755 3.46945e-18 0.265278
0.835106 0.0514296 0 0.265177
0.797951 0.251863 -3.08149e-33 0.249809
0.835106 0.0541543 0 0.265385
0.835106 0.0569779 0 0.265073
0.219992 0.807681 3.46945e-18 0.166401
0.822721 0.154876 7.70372e-34 0.259229
0.835106 0.0627277 0 0.264963
0.151552 0.823889 0 0.164711
0.797951 0.255069 -1.54074e-33 0.249638
0.835106 0.0686863 3.46945e-18 0.264836
0.756814 0.360265 -3.46945e-18 0.237078
0.412065 0.730005 0 0.179737
0.835106 0.0748612 0 0.264667
0.822721 0.16418 7.70372e-34 0.258803
0.835106 0.0812603 0 0.264451
0.835106 0.0878917 -3.46945e-18 0.264208
0.715676 0.440544 0 0.226358
0.835106 0.094764 0 0.263949
0.797951 0.264688 -1.2326e-32 0.249122
0.835106 0.101886 -3.46945e-18 0.263672
0.835106 0.109266 3.46945e-18 0.263376
0.288433 0.791472 0 0.169928
0.835106 0.116914 0 0.263061
0.67013 0.51269 3.46945e-18 0.215842
0.797951 0.274657 6.16298e-33 0.248576
0.075776 0.840686 -3.46945e-18 0.162972
0.835106 0.12484 0 0.262725
0.797951 0.27798 -3.08149e-33 0.248393
0.624584 0.569849 0 0.207081
0.756813 0.377026 -3.46945e-18 0.236064
0.835106 0.133054 3.46945e-18 0.262367
0.835106 0.141565 3.46945e-18 0.261987
0.835106 0.150386 0 0.261584
0.797951 0.291753 0 0.247619
0.835106 0.159528 3.46945e-18 0.261156
0.715676 0.46022 0 0.225081
0.816529 0.239487 -1.54074e-33 0.25386