# UMean  POINT_DATA 63840
# x  y  z  UMean_x  UMean_y  UMean_z
0 0.5 3.39583e-17 0.927184 0 0.374607
0 0.5 -0.00617931 0.927184 0 0.374607
0 0.5 0.00617931 0.927184 0 0.374607
0.0124865 0.5 -0.00617931 0.927155 0.000899421 0.374722
0.0124865 0.5 0.00617931 0.927155 0.000897966 0.374841
0 0.5 -0.0688207 0.927184 0 0.374607
0 0.5 0.0688207 0.927184 0 0.374607
0.0124865 0.5 -0.0688207 0.927155 0.000899421 0.374722
0.0124865 0.5 0.0688207 0.927155 0.000897966 0.374841
0 0.5 -0.075 0.927184 0 0.374607
0 0.5 0.075 0.927184 0 0.374607
0 0.5 -0.0811793 0.927184 0 0.374607
0 0.5 0.0811793 0.927184 0 0.374607
0.0124865 0.5 -0.0811793 0.927154 0.000897469 0.374604
0.0124865 0.5 0.0811793 0.927156 0.000893144 0.374957
0.075776 0.5 -0.0375 0.926983 0.00545126 0.375307
0.075776 0.5 0.0375 0.926983 0.00544224 0.376019
0.075776 0.5 -0.1125 0.926975 0.00543969 0.37459
0.075776 0.5 0.1125 0.926989 0.00541308 0.376724
0 0.5 -0.143821 0.927184 0 0.374607
0 0.5 0.143821 0.927184 0 0.374607
0.0124865 0.5 -0.143821 0.927154 0.000897469 0.374604
0.0124865 0.5 0.143821 0.927156 0.000893144 0.374957
0 0.5 -0.15 0.927184 0 0.374607
0 0.5 0.15 0.927184 0 0.374607
0.151149 0.5 -0.00137318 0.925814 0.00911671 0.376268
0 0.5 -0.156179 0.927184 0 0.374607
0 0.5 0.156179 0.927184 0 0.374607
0.0124865 0.5 -0.156179 0.927153 0.000892171 0.374485
0.0124865 0.5 0.156179 0.927158 0.000884399 0.37507
0.151149 0.5 0.075 0.925828 0.00911923 0.377491
0.151149 0.5 -0.075 0.925798 0.00913438 0.374957
0.075776 0.5 -0.1875 0.926973 0.00540764 0.373877
0.075776 0.5 0.1875 0.927 0.00536023 0.377406
0.151149 0.5 0.15 0.925872 0.00906098 0.378728
0.151149 0.5 -0.15 0.925805 0.00909136 0.373696
0 0.5 -0.218821 0.927184 0 0.374607
0 0.5 0.218821 0.927184 0 0.374607
0.0124865 0.5 -0.218821 0.927153 0.000892171 0.374485
0.0124865 0.5 0.218821 0.927158 0.000884399 0.37507
0.219992 0.5 0.0375 0.924717 0.0125945 0.377648
0.219993 0.5 -0.0375 0.924695 0.0126008 0.375864
0 0.5 -0.225 0.927184 0 0.374607
0 0.5 0.225 0.927184 0 0.374607
0 0.5 -0.231179 0.927184 0 0.374607
0 0.5 0.231179 0.927184 0 0.374607
0.0124865 0.5 -0.231179 0.927156 0.000883133 0.37437
0.0124865 0.5 0.231179 0.927161 0.000872354 0.375177
0.219992 0.5 0.1125 0.924775 0.0125436 0.379427
0.219993 0.5 -0.1125 0.924696 0.0125626 0.374065
0.151149 0.5 -0.225 0.925842 0.00901488 0.372465
0.151149 0.5 0.225 0.925939 0.00896767 0.379918
0.075776 0.5 -0.2625 0.92699 0.0053531 0.373181
0.075776 0.5 0.2625 0.92702 0.00528716 0.378053
0.288069 0.5 -0.00137318 0.921873 0.0159941 0.377076
0.219992 0.5 0.1875 0.924873 0.0124458 0.38114
0.219993 0.5 -0.1875 0.924733 0.0124751 0.372322
0 0.5 0.293821 0.927184 0 0.374607
0 0.5 -0.293821 0.927184 0 0.374607
0.0124865 0.5 -0.293821 0.927156 0.000883133 0.37437
0.0124865 0.5 0.293821 0.927161 0.000872354 0.375177
0.288069 0.5 -0.075 0.921844 0.0159885 0.374643
0.288069 0.5 0.075 0.921923 0.0159879 0.379341
0 0.5 -0.3 0.927184 0 0.374607
0 0.5 0.3 0.927184 0 0.374607
0 0.5 0.306179 0.927184 0 0.374607
0 0.5 -0.306179 0.927184 0 0.374607
0.0124865 0.5 -0.306179 0.927159 0.000871077 0.374262
0.0124865 0.5 0.306179 0.927166 0.000857317 0.375277
0.288069 0.5 -0.15 0.921903 0.0158976 0.37232
0.288069 0.5 0.15 0.922067 0.0158972 0.381645
0.151149 0.5 -0.3 0.925904 0.00890852 0.37128
0.151149 0.5 0.3 0.926027 0.00884211 0.381045
0.219992 0.5 -0.2625 0.924822 0.0123476 0.370617
0.219992 0.5 0.2625 0.925005 0.0123003 0.382787
0.075776 0.5 0.3375 0.927046 0.00519583 0.378657
0.075776 0.5 -0.3375 0.927007 0.00528023 0.372525
0.350249 0.5 -0.0375 0.919148 0.01922 0.375778
0.350249 0.5 0.0375 0.919201 0.0192256 0.378668
0.288069 0.5 -0.225 0.922037 0.0157497 0.370063
0.288069 0.5 0.225 0.92228 0.0157463 0.383871
0.350249 0.5 0.1125 0.919353 0.0191557 0.381522
0.350249 0.5 -0.1125 0.919194 0.0191397 0.372904
0 0.5 0.368821 0.927184 0 0.374607
0 0.5 -0.368821 0.927184 0 0.374607
0.0124865 0.5 -0.368821 0.927159 0.000871077 0.374262
0.0124865 0.5 0.368821 0.927166 0.000857317 0.375277
0 0.5 -0.375 0.927184 0 0.374607
0 0.5 0.375 0.927184 0 0.374607
0 0.5 -0.381179 0.927184 0 0.374607
0 0.5 0.381179 0.927184 0 0.374607
0.0124865 0.5 -0.381179 0.927162 0.000856521 0.37416
0.0124865 0.5 0.381179 0.927171 0.000839684 0.375369
0.350249 0.5 -0.1875 0.919341 0.0189859 0.370098
0.350249 0.5 0.1875 0.919611 0.0190137 0.384321
0.219992 0.5 -0.3375 0.924942 0.0121826 0.369
0.219992 0.5 0.3375 0.92517 0.0121136 0.384334
0.151149 0.5 -0.375 0.925982 0.00877551 0.370161
0.151149 0.5 0.375 0.926133 0.00868759 0.382094
0.411736 0.5 -0.00137318 0.915156 0.0225255 0.377294
0.288069 0.5 -0.3 0.922245 0.0155516 0.367896
0.288069 0.5 0.3 0.922558 0.015538 0.385988
0.411736 0.5 -0.075 0.915138 0.0224838 0.373711
0.411736 0.5 0.075 0.915259 0.0225199 0.380636
0.075776 0.5 -0.4125 0.927027 0.00519208 0.371907
0.075776 0.5 0.4125 0.927077 0.00508858 0.379212
0.350249 0.5 -0.2625 0.919597 0.0187682 0.367387
0.350249 0.5 0.2625 0.919965 0.0187993 0.387001
0.411736 0.5 -0.15 0.915301 0.0223281 0.370303
0.411736 0.5 0.15 0.915542 0.0223992 0.384043
0 0.5 -0.443821 0.927184 0 0.374607
0 0.5 0.443821 0.927184 0 0.374607
0.0124865 0.5 -0.443821 0.927162 0.000856521 0.37416
0.0124865 0.5 0.443821 0.927171 0.000839684 0.375369
0 0.5 -0.45 0.927184 0 0.374607
0 0.5 0.45 0.927184 0 0.374607
0 0.5 -0.456179 0.927184 0 0.374607
0 0.5 0.456179 0.927184 0 0.374607
0.0124865 0.5 -0.456179 0.927166 0.000839867 0.374065
0.0124865 0.5 0.456179 0.927177 0.000819786 0.375451
0.219992 0.5 -0.4125 0.925089 0.0119834 0.367479
0.219993 0.5 0.4125 0.925365 0.0118881 0.385764
0.411736 0.5 -0.225 0.915617 0.0220877 0.367005
0.411736 0.5 0.225 0.91597 0.0221888 0.387347
0.467897 0.5 0.0375 0.911348 0.0256872 0.379144
0.467897 0.5 -0.0375 0.911278 0.0256571 0.375113
0.288069 0.5 -0.375 0.922512 0.015307 0.365854
0.288069 0.5 0.375 0.922895 0.0152769 0.387968
0.151149 0.5 -0.45 0.926075 0.00861884 0.369117
0.151149 0.5 0.45 0.926256 0.00850676 0.383053
0.467897 0.5 -0.1125 0.911407 0.0255168 0.371122
0.467897 0.5 0.1125 0.911608 0.0256068 0.383145
0.350249 0.5 0.3375 0.920409 0.0185178 0.389532
0.350249 0.5 -0.3375 0.91995 0.0184923 0.364817
0.075776 0.5 -0.4875 0.927051 0.00509097 0.371334
0.075776 0.5 0.4875 0.927114 0.00496723 0.379711
0.467897 0.5 -0.1875 0.911731 0.0252732 0.367227
0.467897 0.5 0.1875 0.912059 0.0254182 0.387053
0.411736 0.5 -0.3 0.916079 0.0217709 0.36386
0.411736 0.5 0.3 0.916536 0.0218925 0.390497
0 0.5 -0.518821 0.927184 0 0.374607
0 0.5 0.518821 0.927184 0 0.374607
0.0124865 0.5 0.518821 0.927177 0.000819786 0.375451
0.0124865 0.5 -0.518821 0.927166 0.000839867 0.374065
0.523432 0.5 -0.00137318 0.906362 0.0289484 0.377
0 0.5 -0.525 0.927184 0 0.374607
0 0.5 0.525 0.927184 0 0.374607
0.523432 0.5 -0.075 0.906388 0.0288551 0.372228
0.523432 0.5 0.075 0.906517 0.0289553 0.381466
0 0.5 -0.531179 0.927184 0 0.374607
0 0.5 0.531179 0.927184 0 0.374607
0.0124865 0.5 -0.531179 0.927171 0.000821265 0.373979
0.0124865 0.5 0.531179 0.927184 0.000797915 0.375524
0.288069 0.5 -0.45 0.92283 0.0150197 0.363957
0.288069 0.5 0.45 0.923283 0.0149677 0.389785
0.219992 0.5 -0.4875 0.925262 0.0117533 0.366072
0.219993 0.5 0.4875 0.925582 0.0116277 0.387061
0.467897 0.5 -0.2625 0.912254 0.0249333 0.363508
0.467897 0.5 0.2625 0.912696 0.0251256 0.390819
0.350249 0.5 -0.4125 0.92038 0.0181618 0.362414
0.350249 0.5 0.4125 0.920933 0.0181744 0.391881
0.523432 0.5 -0.15 0.906712 0.0286152 0.367706
0.523432 0.5 0.15 0.90696 0.0288111 0.386028
0.151149 0.5 -0.525 0.926183 0.00844059 0.368158
0.151149 0.5 0.525 0.926392 0.00830236 0.383912
0.411736 0.5 -0.375 0.916666 0.0213845 0.360907
0.411736 0.5 0.375 0.917225 0.0215162 0.393448
0.075776 0.5 -0.5625 0.92708 0.00497782 0.370812
0.075776 0.5 0.5625 0.927155 0.00483379 0.380149
0.523432 0.5 -0.225 0.90729 0.0282581 0.36335
0.523432 0.5 0.225 0.907646 0.0285413 0.390457
0.574156 0.5 -0.0375 0.901576 0.0320421 0.373959
0.574156 0.5 0.0375 0.90164 0.0321119 0.379172
0.467897 0.5 0.3375 0.913503 0.0247346 0.394377
0.467897 0.5 -0.3375 0.912951 0.0245081 0.359987
0.574156 0.5 -0.1125 0.901834 0.0318257 0.368814
0.574156 0.5 0.1125 0.902016 0.0320322 0.384368
0 0.5 -0.593821 0.927184 0 0.374607
0 0.5 0.593821 0.927184 0 0.374607
0.0124865 0.5 -0.593821 0.927171 0.000821265 0.373979
0.0124865 0.5 0.593821 0.927184 0.000797915 0.375524
0.288069 0.5 -0.525 0.923196 0.0146934 0.362224
0.288069 0.5 0.525 0.923713 0.0146151 0.39142
0 0.5 -0.6 0.927184 0 0.374607
0 0.5 0.6 0.927184 0 0.374607
0.350249 0.5 -0.4875 0.920884 0.0177817 0.360208
0.350249 0.5 0.4875 0.921527 0.0177752 0.394018
0.523432 0.5 -0.3 0.908105 0.0277941 0.359218
0.523432 0.5 0.3 0.908564 0.0281515 0.394685
0.219992 0.5 -0.5625 0.925459 0.011494 0.364792
0.219992 0.5 0.5625 0.925817 0.0113354 0.388212
0.574156 0.5 -0.1875 0.902409 0.0314716 0.363821
0.574156 0.5 0.1875 0.902691 0.0318055 0.389447
0 0.5 -0.606179 0.927184 0 0.374607
0 0.5 0.606179 0.927184 0 0.374607
0.0124865 0.5 -0.606179 0.927177 0.000801023 0.373902
0.0124865 0.5 0.606179 0.927192 0.000774449 0.375585
0.411736 0.5 -0.45 0.917363 0.0209343 0.358185
0.411736 0.5 0.45 0.918024 0.0210673 0.396161
0.151149 0.5 -0.6 0.926305 0.00824262 0.367293
0.151149 0.5 0.6 0.926537 0.00807721 0.384663
0.62168 0.5 2.64545e-17 0.896216 0.0351868 0.376351
0.467897 0.5 0.4125 0.914462 0.0242534 0.397682
0.467897 0.5 -0.4125 0.913797 0.0240041 0.356726
0.624316 0.5 0.0729402 0.896106 0.0353893 0.38192
0.624316 0.5 -0.075 0.896018 0.0352 0.370279
0.574156 0.5 -0.2625 0.903282 0.0309883 0.359064
0.574157 0.5 0.2625 0.903659 0.0314374 0.394344
0.075776 0.5 -0.6375 0.927114 0.00485432 0.370345
0.075776 0.5 0.6375 0.9272 0.0046904 0.380524
0.624316 0.5 -0.15 0.896561 0.0348594 0.364611
0.624316 0.5 0.15 0.896724 0.0352306 0.387691
0.523432 0.5 -0.375 0.90913 0.0272336 0.355364
0.523432 0.5 0.375 0.909691 0.0276499 0.398647
0.350249 0.5 -0.5625 0.92145 0.0173565 0.358217
0.350249 0.5 0.5625 0.922175 0.0173265 0.395923
0.624316 0.5 -0.225 0.897478 0.0343671 0.35917
0.624316 0.5 0.225 0.897706 0.0349066 0.393296
0.288069 0.5 0.6 0.924173 0.0142242 0.392857
0.288069 0.5 -0.6 0.9236 0.014332 0.36067
0.574156 0.5 -0.3375 0.904426 0.0303899 0.354587
0.574156 0.5 0.3375 0.904897 0.0309357 0.398973
0.411736 0.5 -0.525 0.918156 0.020427 0.355722
0.411736 0.5 0.525 0.918912 0.0205537 0.398607
0 0.5 -0.668821 0.927184 0 0.374607
0 0.5 0.668821 0.927184 0 0.374607
0.0124865 0.5 -0.668821 0.927177 0.000801023 0.373902
0.0124865 0.5 0.668821 0.927192 0.000774449 0.375585
0.67013 0.5 0.0375 0.890429 0.0385598 0.378842
0.67013 0.5 -0.0375 0.890401 0.0384398 0.372399
0.219993 0.5 -0.6375 0.925673 0.0112086 0.36365
0.219993 0.5 0.6375 0.926063 0.0110153 0.389206
0 0.5 -0.675 0.927184 0 0.374607
0 0.5 0.675 0.927184 0 0.374607
0.467897 0.5 0.4875 0.915551 0.0236911 0.400691
0.467897 0.5 -0.4875 0.914778 0.0234294 0.353757
0.67013 0.5 -0.1125 0.890838 0.0381343 0.366057
0.67013 0.5 0.1125 0.890918 0.03849 0.385281
0 0.5 -0.681179 0.927184 0 0.374607
0 0.5 0.681179 0.927184 0 0.374607
0.0124865 0.5 -0.681179 0.927183 0.000779419 0.373834
0.0124865 0.5 0.681179 0.927199 0.000749698 0.375636
0.523432 0.5 -0.45 0.910338 0.0265861 0.351844
0.523432 0.5 0.45 0.911001 0.0270468 0.402293
0.151149 0.5 -0.675 0.926436 0.00802746 0.366528
0.151149 0.5 0.675 0.926688 0.0078344 0.3853
0.624316 0.5 -0.3 0.898742 0.0337354 0.354038
0.624316 0.5 0.3 0.899034 0.0344248 0.398651
0.67013 0.5 0.1875 0.891843 0.0382321 0.391589
0.67013 0.5 -0.1875 0.891727 0.0376538 0.359925
0.574156 0.5 -0.4125 0.905811 0.0296867 0.350482
0.574157 0.5 0.4125 0.906375 0.0303108 0.403274
0.708171 0.5 1.88651e-17 0.885145 0.0412908 0.375616
0.075776 0.5 -0.7125 0.927152 0.00472238 0.369934
0.075776 0.5 0.7125 0.927245 0.00453924 0.380833
0.715434 0.5 0.0736268 0.884532 0.0417851 0.382256
0.715434 0.5 -0.075 0.884399 0.0415539 0.367943
0.67013 0.5 0.2625 0.893188 0.0377919 0.397666
0.67013 0.5 -0.2625 0.893039 0.0370101 0.354098
0.350249 0.5 -0.6375 0.922064 0.0168921 0.356459
0.350249 0.5 0.6375 0.922861 0.0168349 0.397576
0.411736 0.5 -0.6 0.919025 0.0198698 0.353537
0.411736 0.5 0.6 0.91987 0.0199835 0.40076
0.624316 0.5 -0.375 0.900319 0.0329784 0.349291
0.624316 0.5 0.375 0.900673 0.0337955 0.403669
0.715434 0.5 -0.15 0.885214 0.0410991 0.361087
0.715434 0.5 0.15 0.885195 0.0416859 0.389112
0.467897 0.5 -0.5625 0.915869 0.0227929 0.351109
0.467897 0.5 0.5625 0.916744 0.0230577 0.403373
0.288069 0.5 -0.675 0.924032 0.0139401 0.359308
0.288069 0.5 0.675 0.924654 0.0138004 0.394085
0.523432 0.5 -0.525 0.911698 0.0258621 0.34869
0.523432 0.5 0.525 0.912463 0.0263537 0.405576
0 0.5 -0.743821 0.927184 0 0.374607
0 0.5 0.743821 0.927184 0 0.374607
0.0124865 0.5 -0.743821 0.927183 0.000779419 0.373834
0.0124865 0.5 0.743821 0.927199 0.000749698 0.375636
0.219992 0.5 0.7125 0.926316 0.0106713 0.390038
0.219992 0.5 -0.7125 0.925901 0.0109004 0.362653
0.715434 0.5 -0.225 0.886546 0.0404558 0.354531
0.715434 0.5 0.225 0.886505 0.0413122 0.395948
0 0.5 -0.75 0.927184 0 0.374607
0 0.5 0.75 0.927184 0 0.374607
0.67013 0.5 0.3375 0.894924 0.0371797 0.403425
0.67013 0.5 -0.3375 0.89474 0.0362183 0.348681
0.574156 0.5 -0.4875 0.907399 0.0288907 0.34678
0.574156 0.5 0.4875 0.908058 0.0295763 0.407187
0 0.5 -0.756179 0.927184 0 0.374607
0 0.5 0.756179 0.927184 0 0.374607
0.0124865 0.5 -0.756179 0.92719 0.000756854 0.373776
0.0124865 0.5 0.756179 0.927206 0.000724132 0.375676
0.756813 0.5 -0.0375 0.878137 0.0448558 0.370507
0.756813 0.5 0.0375 0.878104 0.0450354 0.378229
0.151149 0.5 -0.75 0.926575 0.00779814 0.365868
0.151149 0.5 0.75 0.926841 0.00757748 0.385821
0.756813 0.5 -0.1125 0.878795 0.0444493 0.362926
0.756813 0.5 0.1125 0.878699 0.0449823 0.385963
0.624316 0.5 -0.45 0.902162 0.0321101 0.344991
0.624316 0.5 0.45 0.902583 0.0330322 0.40828
0.715434 0.5 -0.3 0.888357 0.0396389 0.348386
0.715434 0.5 0.3 0.888292 0.0407397 0.402479
0.756813 0.5 0.1875 0.879894 0.0446978 0.393552
0.756813 0.5 -0.1875 0.880058 0.0438285 0.355617
0.67013 0.5 -0.4125 0.896784 0.0352952 0.343737
0.67013 0.5 0.4125 0.897001 0.0364086 0.40875
0.411736 0.5 -0.675 0.919947 0.0192708 0.351645
0.411736 0.5 0.675 0.920874 0.019365 0.402604
0.467897 0.5 0.6375 0.918013 0.0223628 0.405703
0.467897 0.5 -0.6375 0.91704 0.0221039 0.348802
0.075776 0.5 -0.7875 0.927193 0.00458423 0.369584
0.075776 0.5 0.7875 0.92729 0.00438311 0.381076
0.350249 0.5 -0.7125 0.922711 0.0163949 0.354943
0.350249 0.5 0.7125 0.923571 0.0163072 0.398969
0.523432 0.5 -0.6 0.913176 0.0250732 0.34593
0.523432 0.5 0.6 0.914041 0.0255824 0.408466
0.797732 0.5 2.68882e-17 0.871414 0.0482441 0.373609
0.756813 0.5 -0.2625 0.881901 0.0430081 0.34871
0.756814 0.5 0.2625 0.881652 0.0441882 0.400866
0.797732 0.5 0.0736268 0.871769 0.0483045 0.382305
0.797732 0.5 -0.075 0.871852 0.0479064 0.365293
0.288069 0.5 -0.75 0.924482 0.0135233 0.358143
0.288069 0.5 0.75 0.925146 0.0133496 0.395098
0.574156 0.5 -0.5625 0.909147 0.0280156 0.343521
0.574157 0.5 0.5625 0.909905 0.0287453 0.410671
0.715434 0.5 -0.375 0.890592 0.0386663 0.342746
0.715434 0.5 0.375 0.890511 0.0399814 0.408599
0.797732 0.5 -0.15 0.872993 0.0473267 0.357212
0.797732 0.5 0.15 0.872689 0.0481603 0.39036
0.624316 0.5 -0.525 0.904219 0.0311454 0.341182
0.624316 0.5 0.525 0.904716 0.0321506 0.41243
0.219992 0.5 -0.7875 0.926136 0.0105739 0.361805
0.219992 0.5 0.7875 0.926571 0.0103086 0.390706
0 0.5 -0.818821 0.927184 0 0.374607
0 0.5 0.818821 0.927184 0 0.374607
0.0124865 0.5 0.818821 0.927206 0.000724132 0.375676
0.0124865 0.5 -0.818821 0.92719 0.000756854 0.373776
0 0.5 -0.825 0.927184 0 0.374607
0 0.5 0.825 0.927184 0 0.374607
0.756813 0.5 0.3375 0.883939 0.043465 0.407784
0.756814 0.5 -0.3375 0.884261 0.0420062 0.342332
0.67013 0.5 -0.4875 0.899104 0.0342569 0.339328
0.67013 0.5 0.4875 0.899367 0.0354953 0.413604
0.797732 0.5 -0.225 0.874814 0.0465196 0.349515
0.797732 0.5 0.225 0.874352 0.0477398 0.398477
0 0.5 -0.831179 0.927184 0 0.374607
0 0.5 0.831179 0.927184 0 0.374607
0.0124865 0.5 -0.831179 0.927197 0.000733565 0.373728
0.0124865 0.5 0.831179 0.927213 0.000698333 0.375706
0.835106 0.5 0.0375 0.864927 0.0515071 0.377405
0.835106 0.5 -0.0375 0.865051 0.0512617 0.368357
0.151149 0.5 -0.825 0.926717 0.00755799 0.365313
0.151149 0.5 0.825 0.926994 0.00731088 0.386226
0.835106 0.5 0.1125 0.865621 0.0514754 0.38648
0.835106 0.5 -0.1125 0.865979 0.0507461 0.359498
0.715434 0.5 -0.45 0.893184 0.0375567 0.337679
0.715434 0.5 0.45 0.893101 0.0390537 0.414212
0.797732 0.5 -0.3 0.877262 0.0455031 0.342341
0.797732 0.5 0.3 0.876641 0.0470778 0.406226
0.467897 0.5 0.7125 0.919329 0.0216166 0.407667
0.467897 0.5 -0.7125 0.918263 0.0213727 0.346845
0.523432 0.5 -0.675 0.914731 0.0242316 0.343578
0.523432 0.5 0.675 0.915697 0.024745 0.410938
0.411736 0.5 -0.75 0.920901 0.0186385 0.350051
0.411736 0.5 0.75 0.921903 0.0187071 0.404131
0.835106 0.5 -0.1875 0.867676 0.049976 0.350979
0.835106 0.5 0.1875 0.867097 0.0511676 0.395395
0.574156 0.5 -0.6375 0.911008 0.0270752 0.340725
0.574157 0.5 0.6375 0.911869 0.0278317 0.413691
0.350249 0.5 -0.7875 0.923376 0.0158722 0.353672
0.350249 0.5 0.7875 0.924289 0.0157507 0.400097
0.756813 0.5 -0.4125 0.887064 0.0408441 0.33655
0.756814 0.5 0.4125 0.886687 0.0425453 0.414211
0.075776 0.5 -0.8625 0.927234 0.00444159 0.369292
0.075776 0.5 0.8625 0.927331 0.00422503 0.381255
0.624316 0.5 0.6 0.907021 0.0311665 0.416073
0.624316 0.5 -0.6 0.906434 0.0301007 0.337895
0.872064 0.5 5.91974e-17 0.858102 0.0546104 0.37203
0.870122 0.5 0.075 0.858836 0.0545463 0.3822
0.288069 0.5 -0.825 0.924941 0.0130875 0.357175
0.288069 0.5 0.825 0.925639 0.0128784 0.395896
0.67013 0.5 -0.5625 0.901638 0.0331215 0.335496
0.67013 0.5 0.5625 0.901969 0.0344583 0.41791
0.872064 0.5 -0.075 0.85873 0.0541833 0.362402
0.835106 0.5 -0.2625 0.870136 0.0489668 0.342973
0.835106 0.5 0.2625 0.869303 0.0505903 0.403991
0.797732 0.5 -0.375 0.880253 0.044299 0.335798
0.797732 0.5 0.375 0.879499 0.0461893 0.413487
0.872064 0.5 0.14794 0.85957 0.0545731 0.391478
0.872064 0.5 -0.15 0.860235 0.0534721 0.353067
0.715434 0.5 -0.525 0.896056 0.0363301 0.333244
0.715434 0.5 0.525 0.895996 0.0379763 0.419249
0.219992 0.5 0.8625 0.926827 0.0099336 0.391212
0.219993 0.5 -0.8625 0.926375 0.0102338 0.361105
0 0.5 -0.893821 0.927184 0 0.374607
0 0.5 0.893821 0.927184 0 0.374607
0.0124865 0.5 -0.893821 0.927197 0.000733565 0.373728
0.0124865 0.5 0.893821 0.927213 0.000698333 0.375706
0 0.5 -0.9 0.927184 0 0.374607
0 0.5 0.9 0.927184 0 0.374607
0.756813 0.5 -0.4875 0.890226 0.0395423 0.331452
0.756813 0.5 0.4875 0.88982 0.0414473 0.420008
0.872064 0.5 -0.225 0.862601 0.0524933 0.344198
0.872064 0.5 0.225 0.861605 0.0541095 0.400913
0.835106 0.5 -0.3375 0.873239 0.047742 0.335613
0.835106 0.5 0.3375 0.872185 0.0497568 0.412107
0 0.5 0.906179 0.927184 0 0.374607
0 0.5 -0.906179 0.927184 0 0.374607
0.0124865 0.5 -0.906179 0.927203 0.00070991 0.37369
0.0124865 0.5 0.906179 0.927218 0.000672475 0.375725
0.90582 0.5 -0.0375 0.851585 0.0575355 0.366009
0.90582 0.5 0.0375 0.851359 0.05785 0.376413
0.151149 0.5 -0.9 0.926861 0.00731045 0.364862
0.151149 0.5 0.9 0.927145 0.007039 0.386519
0.90582 0.5 -0.1125 0.852813 0.0569062 0.355854
0.905821 0.5 0.1125 0.852151 0.0578437 0.386863
0.523432 0.5 -0.75 0.916327 0.0233497 0.341636
0.523432 0.5 0.75 0.917396 0.0238537 0.412982
0.574156 0.5 -0.7125 0.912936 0.0260844 0.338399
0.574156 0.5 0.7125 0.913907 0.0268501 0.416231
0.797732 0.5 -0.45 0.883698 0.0429314 0.329974
0.797732 0.5 0.45 0.882845 0.0450937 0.420133
0.467897 0.5 0.7875 0.920664 0.0208293 0.409259
0.467897 0.5 -0.7875 0.91951 0.0206098 0.345238
0.624316 0.5 -0.675 0.908749 0.0289928 0.335144
0.624316 0.5 0.675 0.909442 0.0300966 0.419181
0.411736 0.5 -0.825 0.921866 0.017982 0.348754
0.411736 0.5 0.825 0.922936 0.0180185 0.405339
0.872064 0.5 0.3 0.864429 0.053361 0.409916
0.872064 0.5 -0.3 0.865759 0.0512688 0.33597
0.67013 0.5 -0.6375 0.904315 0.0319083 0.332263
0.67013 0.5 0.6375 0.904737 0.0333158 0.421632
0.90582 0.5 0.1875 0.853918 0.0575169 0.397136
0.905821 0.5 -0.1875 0.854963 0.0559818 0.346095
0.350249 0.5 -0.8625 0.924046 0.0153314 0.352644
0.350249 0.5 0.8625 0.925005 0.0151732 0.400961
0.835106 0.5 -0.4125 0.876903 0.0463257 0.328997
0.835106 0.5 0.4125 0.875674 0.0486856 0.419642
0.715434 0.5 -0.6 0.899128 0.0350083 0.329475
0.715434 0.5 0.6 0.899124 0.0367706 0.423658
0.939201 0.5 2.75387e-17 0.844225 0.0610359 0.370295
0.075776 0.5 0.9375 0.927366 0.00406697 0.381372
0.075776 0.5 -0.9375 0.927274 0.00429658 0.369059
0.939111 0.5 0.075 0.84456 0.061215 0.38239
0.939201 0.5 -0.075 0.845092 0.0605118 0.359298
0.756813 0.5 0.5625 0.893262 0.0401964 0.425155
0.756814 0.5 -0.5625 0.893657 0.0381254 0.327081
0.90582 0.5 0.2625 0.856596 0.0568764 0.40704
0.905821 0.5 -0.2625 0.858098 0.0547778 0.336948
0.288069 0.5 -0.9 0.925401 0.0126387 0.356401
0.288069 0.5 0.9 0.926128 0.0123938 0.396483
0.872064 0.5 -0.375 0.869585 0.0498245 0.328523
0.872064 0.5 0.375 0.86797 0.0523445 0.418339
0.939201 0.5 0.148627 0.845939 0.0610224 0.39274
0.939201 0.5 -0.15 0.846999 0.059657 0.348657
0.797732 0.5 -0.525 0.887494 0.0414263 0.324939
0.797732 0.5 0.525 0.886583 0.0438153 0.426072
0.219992 0.5 0.9375 0.927086 0.00955226 0.39156
0.219992 0.5 -0.9375 0.926614 0.00988508 0.360551
0.939201 0.5 -0.225 0.849967 0.0584905 0.338558
0.939201 0.5 0.225 0.848288 0.0605381 0.403374
0.905821 0.5 -0.3375 0.862005 0.0533264 0.32859
0.90582 0.5 0.3375 0.860104 0.0559379 0.41639
0.835106 0.5 -0.4875 0.881014 0.0447479 0.323229
0.835106 0.5 0.4875 0.879654 0.0474004 0.426422
0 0.5 0.968821 0.927184 0 0.374607
0 0.5 -0.968821 0.927184 0 0.374607
0.0124865 0.5 -0.968821 0.927203 0.00070991 0.37369
0.0124865 0.5 0.968821 0.927218 0.000672475 0.375725
0.969689 0.5 -0.0375 0.837407 0.0640473 0.363478
0.969689 0.5 0.0375 0.837027 0.0644379 0.375338
0.574156 0.5 -0.7875 0.914883 0.0250575 0.336537
0.574156 0.5 0.7875 0.915972 0.0258145 0.418283
0 0.5 -0.975 0.927184 0 0.374607
0 0.5 0.975 0.927184 0 0.374607
0.624316 0.5 -0.75 0.911105 0.0278387 0.332927
0.624316 0.5 0.75 0.911922 0.0289573 0.42174
0.969689 0.5 -0.1125 0.839028 0.0632889 0.351957
0.96969 0.5 0.1125 0.837898 0.0644564 0.387259
0.523432 0.5 -0.825 0.917928 0.0224398 0.340095
0.523432 0.5 0.825 0.919101 0.0229208 0.414596
0.67013 0.5 0.7125 0.907605 0.032087 0.424748
0.67013 0.5 -0.7125 0.907065 0.0306366 0.329633
0 0.5 -0.981179 0.927184 0 0.374607
0 0.5 0.981179 0.927184 0 0.374607
0.467897 0.5 0.8625 0.921992 0.0200113 0.410481
0.467897 0.5 -0.8625 0.920754 0.0198254 0.343972
0.0124865 0.5 -0.981179 0.927209 0.000686311 0.37366
0.0124865 0.5 0.981179 0.927222 0.000647076 0.375735
0.872064 0.5 -0.45 0.873969 0.04819 0.321958
0.872064 0.5 0.45 0.872129 0.0510822 0.426046
0.715434 0.5 -0.675 0.902315 0.0336136 0.326383
0.715434 0.5 0.675 0.902406 0.0354574 0.427404
0.939201 0.5 -0.3 0.853926 0.0570393 0.329236
0.939201 0.5 0.3 0.851683 0.0596965 0.413681
0.151149 0.5 0.975 0.927296 0.00676467 0.386704
0.151149 0.5 -0.975 0.927003 0.00705926 0.364512
0.969689 0.5 -0.1875 0.841644 0.0621872 0.340874
0.969689 0.5 0.1875 0.839958 0.0641029 0.398974
0.756813 0.5 -0.6375 0.897259 0.0366184 0.323462
0.756813 0.5 0.6375 0.896922 0.0388156 0.429582
0.411736 0.5 -0.9 0.922823 0.0173096 0.347743
0.411736 0.5 0.9 0.923953 0.0173085 0.406233
0.90582 0.5 -0.4125 0.866604 0.0516524 0.32117
0.90582 0.5 0.4125 0.864364 0.0547206 0.425037
0.995005 0.5 0.0749309 0.832165 0.0664743 0.382059
0.797732 0.5 -0.6 0.89153 0.039811 0.320727
0.797732 0.5 0.6 0.890617 0.0423809 0.431255
1.00005 0.5 -8.47123e-18 0.830666 0.0667157 0.368488
0.350249 0.5 -0.9375 0.924708 0.0147795 0.351848
0.350249 0.5 0.9375 0.925702 0.0145823 0.40157
1.00005 0.5 -0.0749309 0.831782 0.0661067 0.356221
0.969689 0.5 -0.2625 0.845595 0.0607592 0.330509
0.969689 0.5 0.2625 0.843139 0.0633845 0.410262
0.835106 0.5 -0.5625 0.88545 0.0430374 0.31835
0.835106 0.5 0.5625 0.884011 0.0459308 0.432417
1.00005 0.5 -0.149862 0.834092 0.0651284 0.344365
0.939201 0.5 -0.375 0.858674 0.055335 0.320856
0.939201 0.5 0.375 0.855955 0.0585427 0.423303
1.00029 0.5 0.148988 0.83264 0.0667279 0.393611
0.075776 0.5 -1.0125 0.927311 0.00415141 0.368881
0.075776 0.5 1.0125 0.927394 0.00391085 0.381432
0.288069 0.5 0.975 0.926606 0.0119004 0.396868
0.288069 0.5 -0.975 0.925854 0.0121829 0.355812
0.872064 0.5 -0.525 0.878773 0.0463971 0.316343
0.872064 0.5 0.525 0.876776 0.0496028 0.43291
1.00005 0.5 0.224793 0.835294 0.0662481 0.405516
1.00005 0.5 -0.224793 0.83768 0.0638036 0.333081
0.969689 0.5 0.3375 0.847332 0.06232 0.420904
0.96969 0.5 -0.3375 0.850407 0.0590472 0.321125
1.0271 0.5 -0.0368226 0.823875 0.069574 0.361075
1.0271 0.5 0.0368226 0.823386 0.0700171 0.37403
0.90582 0.5 0.4875 0.869238 0.0532529 0.432863
0.905821 0.5 -0.4875 0.871728 0.0497942 0.314743
1.0271 0.5 -0.110468 0.825787 0.068742 0.348556
1.0271 0.5 0.110468 0.823899 0.0703716 0.390066
0.67013 0.5 0.7875 0.910511 0.0307903 0.427249
0.67013 0.5 -0.7875 0.909822 0.0293254 0.327592
0.624316 0.5 0.825 0.914409 0.0277651 0.423749
0.624316 0.5 -0.825 0.913449 0.0266547 0.331226
0.219993 0.5 -1.0125 0.926853 0.00953326 0.360136
0.219993 0.5 1.0125 0.927352 0.00916595 0.391764
0.574156 0.5 -0.8625 0.916809 0.024008 0.335122
0.574156 0.5 0.8625 0.918024 0.024739 0.419852
0.715434 0.5 -0.75 0.905536 0.032168 0.323958
0.715434 0.5 0.75 0.905767 0.0340576 0.43047
0.756813 0.5 0.7125 0.900711 0.0373277 0.433269
0.756814 0.5 -0.7125 0.900935 0.035047 0.320591
0.523432 0.5 -0.9 0.9195 0.0215132 0.33894
0.523432 0.5 0.9 0.920778 0.0219586 0.415789
0.939201 0.5 -0.45 0.864086 0.0534116 0.313522
0.939201 0.5 0.45 0.860985 0.0571023 0.432094
1.04168 0.5 0 0.819637 0.0714081 0.367014
1.0271 0.5 -0.184113 0.828837 0.0675417 0.336449
1.0271 0.5 0.184113 0.826642 0.0697288 0.399873
0 0.5 -1.04382 0.927184 0 0.374607
0 0.5 1.04382 0.927184 0 0.374607
0.0124865 0.5 -1.04382 0.927209 0.000686311 0.37366
0.0124865 0.5 1.04382 0.927222 0.000647076 0.375735
1.00005 0.5 -0.299723 0.84246 0.0621642 0.322715
1.00005 0.5 0.299723 0.839269 0.0653428 0.417055
1.04168 0.5 -0.0729162 0.820899 0.0707551 0.354019
1.04168 0.5 0.0729162 0.819852 0.0716665 0.380301
0.797732 0.5 -0.675 0.89569 0.0381132 0.317348
0.797732 0.5 0.675 0.894847 0.0408163 0.435634
0.467897 0.5 0.9375 0.923284 0.0191729 0.411344
0.467897 0.5 -0.9375 0.921971 0.0190285 0.343031
0 0.5 -1.05 0.927184 0 0.374607
0 0.5 1.05 0.927184 0 0.374607
0.835106 0.5 -0.6375 0.890085 0.041225 0.314389
0.835106 0.5 0.6375 0.888647 0.0443057 0.437546
1.04168 0.5 -0.145832 0.823454 0.0697169 0.341459
1.04168 0.5 0.145832 0.821495 0.0715299 0.393505
0.969689 0.5 -0.4125 0.856051 0.0570779 0.3128
0.96969 0.5 0.4125 0.852432 0.0609312 0.430712
0 0.5 -1.05618 0.927184 0 0.374607
0 0.5 1.05618 0.927184 0 0.374607
0.0124865 0.5 -1.05618 0.927214 0.00066275 0.37364
0.0124865 0.5 1.05618 0.927225 0.000622837 0.375736
1.05695 0.5 -0.0360764 0.81596 0.0727534 0.359684
1.05695 0.5 0.0360764 0.815405 0.0732224 0.373192
0.411736 0.5 -0.975 0.923754 0.0166289 0.347004
0.411736 0.5 0.975 0.924934 0.016585 0.406826
0.872064 0.5 -0.6 0.88385 0.0444785 0.311723
0.872064 0.5 0.6 0.881782 0.0479393 0.438856
1.0271 0.5 -0.257759 0.833432 0.0659989 0.325072
1.0271 0.5 0.257759 0.830243 0.0690035 0.412241
0.151149 0.5 -1.05 0.927143 0.00680723 0.364257
0.151149 0.5 1.05 0.927443 0.00649134 0.386789
1.05695 0.5 0.108229 0.815568 0.0736238 0.387052
1.05695 0.5 -0.108229 0.818023 0.0718849 0.346717
1.04168 0.5 -0.218749 0.827389 0.0683192 0.329427
1.04168 0.5 0.218749 0.824496 0.0710001 0.406376
0.90582 0.5 -0.5625 0.877231 0.0477819 0.309376
0.905821 0.5 0.5625 0.87458 0.0515667 0.439682
1.00005 0.5 -0.374654 0.848153 0.0602438 0.313446
1.00005 0.5 0.374654 0.844278 0.0640904 0.427816
0.350249 0.5 1.0125 0.926363 0.0139817 0.401938
0.350249 0.5 -1.0125 0.925352 0.0142223 0.351272
1.05695 0.5 -0.180382 0.821245 0.0706368 0.334094
1.05695 0.5 0.180382 0.818692 0.0729684 0.400117
1.07319 0.5 0.0709442 0.811256 0.075178 0.382592
0.939201 0.5 -0.525 0.869987 0.0513069 0.307335
0.939201 0.5 0.525 0.866618 0.0554076 0.439901
1.0271 0.5 -0.331404 0.839011 0.0641527 0.314848
1.0271 0.5 0.331404 0.835008 0.0679114 0.423922
1.08112 0.5 3.23815e-17 0.808677 0.075723 0.365511
1.04168 0.5 -0.291665 0.832628 0.0665954 0.318379
1.04168 0.5 0.291665 0.828758 0.07009 0.418678
1.08112 0.5 -0.0709442 0.810067 0.0750312 0.351844
0.969689 0.5 -0.4875 0.862295 0.0548978 0.305664
0.96969 0.5 0.4875 0.85829 0.0592514 0.439561
1.05695 0.5 0.252535 0.822398 0.0722489 0.413023
1.05695 0.5 -0.252535 0.82611 0.0690434 0.322175
0.288069 0.5 -1.05 0.926293 0.0117244 0.355397
0.288069 0.5 1.05 0.927066 0.0114014 0.397066
0.075776 0.5 -1.0875 0.927342 0.00400698 0.368756
0.075776 0.5 1.0875 0.927412 0.00376156 0.381439
1.08112 0.5 -0.141888 0.812844 0.073943 0.338633
1.08145 0.5 0.140165 0.810814 0.0757968 0.393825
0.715434 0.5 0.825 0.909131 0.0325923 0.432858
0.715434 0.5 -0.825 0.908717 0.0306924 0.322173
0.756813 0.5 0.7875 0.904546 0.0357559 0.436208
0.756814 0.5 -0.7875 0.904594 0.0334347 0.318442
0.67013 0.5 -0.8625 0.912529 0.0279929 0.326111
0.67013 0.5 0.8625 0.913393 0.0294441 0.429145
0.797732 0.5 -0.75 0.899862 0.0363601 0.314781
0.797732 0.5 0.75 0.899176 0.0391472 0.439193
0.624316 0.5 -0.9 0.915735 0.0254556 0.330014
0.624316 0.5 0.9 0.916853 0.0265362 0.425221
1.00005 0.5 -0.449585 0.854629 0.058079 0.305388
1.00005 0.5 0.449585 0.850182 0.0625183 0.437633
0.835106 0.5 -0.7125 0.894768 0.0393394 0.311334
0.835106 0.5 0.7125 0.893442 0.0425531 0.44179
0.574156 0.5 -0.9375 0.918677 0.022948 0.334129
0.574157 0.5 0.9375 0.920022 0.0236376 0.420952
1.10076 0.5 -0.0349809 0.803216 0.0776983 0.357583
1.10076 0.5 0.0349809 0.802575 0.078202 0.371922
1.08112 0.5 -0.212832 0.81707 0.0724878 0.325912
1.08112 0.5 0.212832 0.813604 0.0753854 0.407013
0.872064 0.5 -0.675 0.889054 0.0424697 0.30811
0.872064 0.5 0.675 0.887017 0.0461223 0.443854
1.04168 0.5 -0.364581 0.838862 0.0645763 0.30852
1.04168 0.5 0.364581 0.834144 0.06882 0.430179
1.0271 0.5 0.405049 0.8408 0.0664748 0.434709