# UMean  POINT_DATA 63140
# x  y  z  UMean_x  UMean_y  UMean_z
0 0.1 0 0.927184 0 0.374607
0 0.1 -0.0179898 0.927184 0 0.374607
0 0.1 0.0179898 0.927184 0 0.374607
0.0363518 0.1 0.0179898 0.930117 0.00726322 0.37535
0.0363518 0.1 -0.0179898 0.930097 0.0072677 0.374952
0 0.1 -0.0570102 0.927184 0 0.374607
0 0.1 0.0570102 0.927184 0 0.374607
0.0363518 0.1 0.0570102 0.930117 0.00726322 0.37535
0.0363518 0.1 -0.0570102 0.930097 0.0072677 0.374952
0 0.1 -0.075 0.927184 0 0.374607
0 0.1 0.075 0.927184 0 0.374607
0.075776 0.1 -0.0375 0.933299 0.0152725 0.375321
0.075776 0.1 0.0375 0.933343 0.0152633 0.376153
0 0.1 -0.0929898 0.927184 0 0.374607
0 0.1 0.0929898 0.927184 0 0.374607
0.0363518 0.1 -0.0929898 0.930045 0.00724308 0.374555
0.0363518 0.1 0.0929898 0.930115 0.00724326 0.375732
0 0.1 -0.13201 0.927184 0 0.374607
0 0.1 0.13201 0.927184 0 0.374607
0.075776 0.1 -0.1125 0.933191 0.0152221 0.374492
0.075776 0.1 0.1125 0.933338 0.0152225 0.376948
0.0363518 0.1 -0.13201 0.930045 0.00724308 0.374555
0.0363518 0.1 0.13201 0.930115 0.00724326 0.375732
0 0.1 -0.15 0.927184 0 0.374607
0 0.1 0.15 0.927184 0 0.374607
0.150379 0.1 -2.22623e-17 0.935201 0.0145864 0.376161
0 0.1 -0.16799 0.927184 0 0.374607
0 0.1 0.16799 0.927184 0 0.374607
0.150379 0.1 -0.075 0.935209 0.0145457 0.374754
0.150379 0.1 0.075 0.935281 0.0145932 0.377558
0.0363518 0.1 -0.16799 0.929978 0.00720245 0.374157
0.0363518 0.1 0.16799 0.930079 0.00720728 0.376101
0.075776 0.1 -0.1875 0.933054 0.01514 0.373664
0.075776 0.1 0.1875 0.933266 0.0151496 0.377718
0 0.1 -0.20701 0.927184 0 0.374607
0 0.1 0.20701 0.927184 0 0.374607
0.0363518 0.1 -0.20701 0.929978 0.00720245 0.374157
0.0363518 0.1 0.20701 0.930079 0.00720728 0.376101
0.150379 0.1 -0.15 0.935342 0.0144849 0.373348
0.150379 0.1 0.15 0.935453 0.0145644 0.378926
0.219993 0.1 -0.0375 0.936977 0.013912 0.375588
0.219993 0.1 0.0375 0.937018 0.0139677 0.377545
0 0.1 -0.225 0.927184 0 0.374607
0 0.1 0.225 0.927184 0 0.374607
0 0.1 -0.24299 0.927184 0 0.374607
0 0.1 0.24299 0.927184 0 0.374607
0.0363518 0.1 0.24299 0.930033 0.00716525 0.376445
0.0363518 0.1 -0.24299 0.929931 0.00717019 0.373774
0.219993 0.1 -0.1125 0.937194 0.0138479 0.373629
0.219993 0.1 0.1125 0.937254 0.0139864 0.379496
0.150379 0.1 -0.225 0.935572 0.0144294 0.37195
0.150379 0.1 0.225 0.935707 0.0145062 0.380259
0.075776 0.1 -0.2625 0.932958 0.015075 0.372863
0.075776 0.1 0.2625 0.933171 0.0150646 0.378434
0 0.1 -0.28201 0.927184 0 0.374607
0 0.1 0.28201 0.927184 0 0.374607
0.0363518 0.1 -0.28201 0.929931 0.00717019 0.373774
0.0363518 0.1 0.28201 0.930033 0.00716525 0.376445
0.287374 0.1 -2.89121e-19 0.934049 0.0134672 0.376691
0.219992 0.1 0.1875 0.937762 0.0139638 0.381399
0.219992 0.1 -0.1875 0.937733 0.0138009 0.371674
0.287374 0.1 -0.075 0.934148 0.0134241 0.374159
0.287374 0.1 0.075 0.934173 0.0135022 0.379212
0 0.1 -0.3 0.927184 0 0.374607
0 0.1 0.3 0.927184 0 0.374607
0 0.1 0.31799 0.927184 0 0.374607
0 0.1 -0.31799 0.927184 0 0.374607
0.0363518 0.1 -0.31799 0.929899 0.00714273 0.373416
0.0363518 0.1 0.31799 0.929994 0.00712823 0.376762
0.287374 0.1 0.15 0.934521 0.0135131 0.381703
0.287374 0.1 -0.15 0.934511 0.0133856 0.371627
0.150379 0.1 -0.3 0.935798 0.0143824 0.370607
0.150379 0.1 0.3 0.935983 0.0144306 0.381534
0.219993 0.1 0.2625 0.93841 0.0139098 0.383287
0.219993 0.1 -0.2625 0.938315 0.0137717 0.369717
0.075776 0.1 -0.3375 0.932895 0.0150189 0.372117
0.075776 0.1 0.3375 0.933093 0.0149892 0.379096
0.350249 0.1 -0.0375 0.931229 0.0130001 0.375271
0.350249 0.1 0.0375 0.931235 0.0130318 0.378348
0 0.1 -0.35701 0.927184 0 0.374607
0 0.1 0.35701 0.927184 0 0.374607
0.0363518 0.1 -0.35701 0.929899 0.00714273 0.373416
0.0363518 0.1 0.35701 0.929994 0.00712823 0.376762
0.287374 0.1 -0.225 0.935066 0.0133487 0.369109
0.287374 0.1 0.225 0.935088 0.0134871 0.384155
0.350249 0.1 -0.1125 0.931456 0.0129777 0.372184
0.350249 0.1 0.1125 0.931448 0.0130657 0.381399
0 0.1 -0.375 0.927184 0 0.374607
0 0.1 0.375 0.927184 0 0.374607
0 0.1 -0.39299 0.927184 0 0.374607
0 0.1 0.39299 0.927184 0 0.374607
0.0363518 0.1 -0.39299 0.929883 0.00711468 0.373088
0.0363518 0.1 0.39299 0.929968 0.00709365 0.37704
0.350249 0.1 -0.1875 0.931925 0.0129559 0.369107
0.350249 0.1 0.1875 0.931886 0.0130785 0.384411
0.219992 0.1 -0.3375 0.938771 0.013733 0.367902
0.219992 0.1 0.3375 0.939006 0.0138217 0.385067
0.150379 0.1 0.375 0.936242 0.0143461 0.382722
0.150379 0.1 -0.375 0.935997 0.0143319 0.369361
0.411108 0.1 4.33681e-19 0.926263 0.0132754 0.376635
0.287374 0.1 -0.3 0.93566 0.0132965 0.366682
0.287374 0.1 0.3 0.935781 0.0134165 0.38653
0.411108 0.1 -0.075 0.926414 0.0132496 0.372908
0.411108 0.1 0.075 0.926375 0.0133044 0.380346
0.075776 0.1 -0.4125 0.932862 0.0149615 0.371435
0.075776 0.1 0.4125 0.93304 0.0149183 0.379675
0 0.1 0.43201 0.927184 0 0.374607
0 0.1 -0.43201 0.927184 0 0.374607
0.0363518 0.1 0.43201 0.929968 0.00709365 0.37704
0.0363518 0.1 -0.43201 0.929883 0.00711468 0.373088
0.411108 0.1 -0.15 0.926835 0.0132221 0.369201
0.411108 0.1 0.15 0.926747 0.0133256 0.384009
0.350249 0.1 -0.2625 0.932559 0.0129064 0.366075
0.350249 0.1 0.2625 0.932565 0.0130375 0.387368
0 0.1 -0.45 0.927184 0 0.374607
0 0.1 0.45 0.927184 0 0.374607
0.219992 0.1 0.4125 0.939545 0.013719 0.386748
0.219992 0.1 -0.4125 0.939185 0.0136829 0.366211
0 0.1 -0.46799 0.927184 0 0.374607
0 0.1 0.46799 0.927184 0 0.374607
0.411108 0.1 -0.225 0.927496 0.0131756 0.365567
0.411108 0.1 0.225 0.927392 0.0133128 0.387597
0.467897 0.1 -0.0375 0.921518 0.0135103 0.374291
0.467897 0.1 0.0375 0.921482 0.013535 0.378643
0.0363518 0.1 0.46799 0.92995 0.00706653 0.377279
0.0363518 0.1 -0.46799 0.929881 0.00709071 0.37279
0.287374 0.1 -0.375 0.936233 0.013222 0.364418
0.287374 0.1 0.375 0.936506 0.013309 0.388765
0.150379 0.1 0.45 0.936486 0.0142648 0.383794
0.150379 0.1 -0.45 0.936197 0.0142781 0.368216
0.467897 0.1 0.1125 0.921749 0.0135608 0.382953
0.467897 0.1 -0.1125 0.921864 0.0134861 0.369952
0.350249 0.1 -0.3375 0.933254 0.012817 0.363218
0.350249 0.1 0.3375 0.933407 0.0129384 0.390196
0.075776 0.1 -0.4875 0.932858 0.0149127 0.370813
0.075776 0.1 0.4875 0.933004 0.0148631 0.380174
0.467897 0.1 0.1875 0.922315 0.0135734 0.387183
0.467897 0.1 -0.1875 0.922499 0.0134448 0.365678
0 0.1 -0.50701 0.927184 0 0.374607
0 0.1 0.50701 0.927184 0 0.374607
0.0363518 0.1 -0.50701 0.929881 0.00709071 0.37279
0.0363518 0.1 0.50701 0.92995 0.00706653 0.377279
0.411108 0.1 0.3 0.928297 0.0132447 0.39106
0.411108 0.1 -0.3 0.928329 0.0130928 0.362089
0.522865 0.1 1.41031e-17 0.915193 0.0141299 0.37602
0 0.1 -0.525 0.927184 0 0.374607
0 0.1 0.525 0.927184 0 0.374607
0.522865 0.1 -0.075 0.915443 0.0140969 0.370999
0.522865 0.1 0.075 0.91531 0.0141526 0.381036
0.287374 0.1 0.45 0.937233 0.0131776 0.39081
0.287374 0.1 -0.45 0.936799 0.0131274 0.362338
0.219992 0.1 0.4875 0.940049 0.0136246 0.38823
0.219992 0.1 -0.4875 0.939586 0.0136242 0.364668
0.467897 0.1 -0.2625 0.923398 0.0133724 0.361572
0.467897 0.1 0.2625 0.923205 0.0135377 0.391286
0.350249 0.1 -0.4125 0.933968 0.0126998 0.36057
0.350249 0.1 0.4125 0.934318 0.0127993 0.392801
0 0.1 -0.54299 0.927184 0 0.374607
0 0.1 0.54299 0.927184 0 0.374607
0.522865 0.1 0.15 0.91579 0.0141615 0.385981
0.522865 0.1 -0.15 0.916051 0.0140441 0.366048
0.0363518 0.1 0.54299 0.929948 0.00704292 0.377495
0.0363518 0.1 -0.54299 0.929894 0.00706913 0.372513
0.150379 0.1 -0.525 0.936387 0.0142216 0.36718
0.150379 0.1 0.525 0.936705 0.01419 0.384715
0.411108 0.1 -0.375 0.929259 0.01297 0.358843
0.411108 0.1 0.375 0.929394 0.0131224 0.394319
0.075776 0.1 -0.5625 0.932885 0.0148686 0.370236
0.075776 0.1 0.5625 0.932999 0.0148151 0.380623
0.522865 0.1 -0.225 0.916993 0.0139586 0.361259
0.522865 0.1 0.225 0.91664 0.0141372 0.390795
0.574156 0.1 0.0375 0.909083 0.0147254 0.378438
0.574157 0.1 -0.0375 0.909178 0.0146964 0.372743
0.467897 0.1 -0.3375 0.924488 0.0132537 0.357698
0.467897 0.1 0.3375 0.924403 0.0134409 0.395204
0 0.1 -0.58201 0.927184 0 0.374607
0 0.1 0.58201 0.927184 0 0.374607
0.0363518 0.1 -0.58201 0.929894 0.00706913 0.372513
0.0363518 0.1 0.58201 0.929948 0.00704292 0.377495
0.574157 0.1 -0.1125 0.909698 0.0146431 0.367098
0.574157 0.1 0.1125 0.909416 0.0147366 0.384091
0.287374 0.1 -0.525 0.937342 0.0130154 0.360473
0.287374 0.1 0.525 0.937915 0.0130308 0.392608
0 0.1 -0.6 0.927184 0 0.374607
0 0.1 0.6 0.927184 0 0.374607
0.350249 0.1 0.4875 0.935251 0.0126132 0.395173
0.350249 0.1 -0.4875 0.934691 0.0125509 0.358172
0.522865 0.1 -0.3 0.918216 0.0138288 0.356722
0.522865 0.1 0.3 0.917865 0.0140574 0.39542
0.219992 0.1 -0.5625 0.939906 0.0135507 0.363305
0.219992 0.1 0.5625 0.94044 0.013525 0.389444
0.574156 0.1 -0.1875 0.910622 0.0145521 0.361597
0.574156 0.1 0.1875 0.910167 0.0147235 0.389625
0.411108 0.1 0.45 0.930602 0.0129483 0.397313
0.411108 0.1 -0.45 0.930245 0.0128113 0.355879
0 0.1 -0.61799 0.927184 0 0.374607
0 0.1 0.61799 0.927184 0 0.374607
0.150379 0.1 -0.6 0.936568 0.0141604 0.366257
0.150379 0.1 0.6 0.936904 0.0141138 0.385488
0.0363518 0.1 -0.61799 0.929911 0.0070467 0.372264
0.0363518 0.1 0.61799 0.929958 0.00701784 0.377687
0.467897 0.1 -0.4125 0.925691 0.0130893 0.354136
0.467897 0.1 0.4125 0.925822 0.0132872 0.398843
0.623803 0.1 2.34188e-17 0.901807 0.0156082 0.374918
0.623803 0.1 0.075 0.901922 0.0156306 0.38131
0.623803 0.1 -0.075 0.902201 0.0155504 0.368547
0.574156 0.1 0.2625 0.91135 0.0146637 0.394966
0.574156 0.1 -0.2625 0.911916 0.0144173 0.356371
0.623803 0.1 0.15 0.902541 0.0156196 0.387617
0.623803 0.1 -0.15 0.903087 0.0154485 0.36231
0.075776 0.1 0.6375 0.933019 0.014764 0.381022
0.075776 0.1 -0.6375 0.932921 0.0148227 0.369717
0.522865 0.1 -0.375 0.919646 0.0136473 0.352511
0.522865 0.1 0.375 0.919421 0.0139145 0.399775
0 0.1 0.65701 0.927184 0 0.374607
0 0.1 -0.65701 0.927184 0 0.374607
0.0363518 0.1 0.65701 0.929958 0.00701784 0.377687
0.0363518 0.1 -0.65701 0.929911 0.0070467 0.372264
0.350249 0.1 0.5625 0.936132 0.0124101 0.397259
0.350249 0.1 -0.5625 0.935401 0.0123879 0.356048
0.623803 0.1 0.225 0.903662 0.0155654 0.393745
0.623803 0.1 -0.225 0.904432 0.015295 0.356328
0.287374 0.1 -0.6 0.937866 0.0128927 0.35883
0.287374 0.1 0.6 0.938542 0.0128776 0.394134
0.574157 0.1 -0.3375 0.913507 0.0142265 0.35147
0.574157 0.1 0.3375 0.912962 0.0145377 0.400055
0.411108 0.1 0.525 0.931847 0.0127313 0.400003
0.411108 0.1 -0.525 0.931265 0.0126251 0.353231
0.67013 0.1 0.0375 0.894655 0.0164931 0.377818
0.67013 0.1 -0.0375 0.89484 0.0164455 0.37072
0.219992 0.1 -0.6375 0.940232 0.0134708 0.362107
0.219993 0.1 0.6375 0.940811 0.0134214 0.390441
0 0.1 -0.675 0.927184 0 0.374607
0 0.1 0.675 0.927184 0 0.374607
0.467897 0.1 -0.4875 0.926974 0.0128871 0.350924
0.467897 0.1 0.4875 0.927369 0.0130708 0.402162
0.67013 0.1 -0.1125 0.895609 0.0163454 0.363724
0.67013 0.1 0.1125 0.895061 0.0164946 0.384888
0.522865 0.1 0.45 0.921223 0.0137062 0.403785
0.522865 0.1 -0.45 0.921226 0.0134194 0.348692
0.150379 0.1 0.675 0.937109 0.0140351 0.386133
0.150379 0.1 -0.675 0.936759 0.014097 0.365446
0.623803 0.1 0.3 0.905283 0.0154497 0.399614
0.623803 0.1 -0.3 0.906174 0.0150831 0.350699
0 0.1 -0.69299 0.927184 0 0.374607
0 0.1 0.69299 0.927184 0 0.374607
0.0363518 0.1 -0.69299 0.929929 0.00702568 0.372044
0.0363518 0.1 0.69299 0.929971 0.00699299 0.377849
0.67013 0.1 -0.1875 0.896931 0.0161846 0.356965
0.67013 0.1 0.1875 0.896043 0.0164517 0.39181
0.574156 0.1 0.4125 0.91494 0.0143441 0.404784
0.574157 0.1 -0.4125 0.915324 0.0139776 0.347
0.714971 0.1 -2.8382e-17 0.886661 0.017629 0.373406
0.075776 0.1 -0.7125 0.932959 0.0147799 0.36926
0.075776 0.1 0.7125 0.933047 0.0147134 0.381361
0.714971 0.1 -0.075 0.887247 0.0175295 0.365629
0.714971 0.1 0.075 0.886757 0.017663 0.381241
0.67013 0.1 0.2625 0.897597 0.0163518 0.398474
0.67013 0.1 -0.2625 0.898753 0.0159601 0.350569
0.411108 0.1 -0.6 0.93231 0.0124226 0.350912
0.411108 0.1 0.6 0.933077 0.0124945 0.402344
0.350249 0.1 0.6375 0.936974 0.0122082 0.39903
0.350249 0.1 -0.6375 0.936125 0.0122176 0.354195
0.623803 0.1 0.375 0.907374 0.0152613 0.405132
0.623803 0.1 -0.375 0.908241 0.0148086 0.345514
0.714971 0.1 -0.15 0.888492 0.0173582 0.358057
0.714971 0.1 0.15 0.887534 0.0176351 0.388989
0.467897 0.1 -0.5625 0.928311 0.0126589 0.348094
0.467897 0.1 0.5625 0.928957 0.0128102 0.405107
0 0.1 -0.73201 0.927184 0 0.374607
0 0.1 0.73201 0.927184 0 0.374607
0.0363518 0.1 0.73201 0.929971 0.00699299 0.377849
0.0363518 0.1 -0.73201 0.929929 0.00702568 0.372044
0.287374 0.1 -0.675 0.938406 0.0127639 0.357405
0.287374 0.1 0.675 0.939154 0.0127227 0.395405
0.522865 0.1 -0.525 0.922913 0.0131568 0.345305
0.522865 0.1 0.525 0.923172 0.0134371 0.407396
0.219993 0.1 -0.7125 0.940582 0.0133876 0.361064
0.219992 0.1 0.7125 0.941195 0.0133147 0.391259
0.714971 0.1 -0.225 0.890348 0.0171094 0.350831
0.714971 0.1 0.225 0.888974 0.0175434 0.396514
0 0.1 0.75 0.927184 0 0.374607
0 0.1 -0.75 0.927184 0 0.374607
0.67013 0.1 -0.3375 0.900993 0.0156662 0.344617
0.67013 0.1 0.3375 0.89972 0.0161766 0.404809
0.574156 0.1 -0.4875 0.917312 0.0136851 0.343004
0.574157 0.1 0.4875 0.91718 0.0140765 0.409097
0.756813 0.1 0.0375 0.878687 0.0187869 0.376851
0.756814 0.1 -0.0375 0.878995 0.0187036 0.368289
0.150379 0.1 0.746002 0.937234 0.0139728 0.38654
0.150379 0.1 -0.75 0.936958 0.0140334 0.364747
0.756813 0.1 -0.1125 0.880072 0.0185382 0.359887
0.756813 0.1 0.1125 0.879161 0.0187896 0.385413
0 0.1 0.76799 0.927184 0 0.374607
0 0.1 -0.76799 0.927184 0 0.374607
0.0363518 0.1 0.76799 0.929984 0.00697133 0.37798
0.0363518 0.1 -0.76799 0.929944 0.00700752 0.371858
0.623803 0.1 -0.45 0.910561 0.0144793 0.340854
0.623803 0.1 0.45 0.909848 0.0149973 0.410211
0.714971 0.1 -0.3 0.892742 0.0167842 0.34408
0.714971 0.1 0.3 0.891067 0.0173762 0.403706
0.756814 0.1 -0.1875 0.881872 0.0182826 0.3518
0.756814 0.1 0.1875 0.880399 0.0187173 0.393802
0.67013 0.1 -0.4125 0.903586 0.0153058 0.339235
0.67013 0.1 0.4125 0.902348 0.01592 0.410685
0.411108 0.1 0.675 0.934288 0.0122511 0.404315
0.411108 0.1 -0.675 0.933379 0.0122094 0.348928
0.467897 0.1 0.6375 0.930536 0.0125313 0.407633
0.467897 0.1 -0.6375 0.929691 0.0124135 0.345656
0.075776 0.1 0.7875 0.933075 0.0146693 0.381633
0.075776 0.1 -0.7875 0.932991 0.0147429 0.368871
0.350249 0.1 -0.7125 0.936866 0.0120398 0.352613
0.350249 0.1 0.7125 0.937804 0.0120052 0.400494
0.522865 0.1 -0.6 0.924674 0.01287 0.342372
0.522865 0.1 0.6 0.925183 0.0131267 0.410553
0.797314 0.1 -3.59473e-17 0.870212 0.020222 0.371561
0.287374 0.1 0.746002 0.939767 0.0125842 0.396302
0.797314 0.1 -0.075 0.871042 0.0200605 0.362321
0.797314 0.1 0.075 0.870266 0.0202828 0.380902
0.756814 0.1 -0.2625 0.884334 0.0179318 0.34418
0.756814 0.1 0.2625 0.882376 0.0185672 0.401879
0.287374 0.1 -0.75 0.938961 0.0126297 0.356195
0.574156 0.1 -0.5625 0.919422 0.0133613 0.339521
0.574156 0.1 0.5625 0.919572 0.0137471 0.412927
0 0.1 0.80701 0.927184 0 0.374607
0 0.1 -0.80701 0.927184 0 0.374607
0.714971 0.1 -0.375 0.89559 0.0163864 0.337913
0.714971 0.1 0.375 0.893776 0.017122 0.41046
0.0363518 0.1 0.80701 0.929984 0.00697133 0.37798
0.0363518 0.1 -0.80701 0.929944 0.00700752 0.371858
0.797314 0.1 -0.15 0.872718 0.0197923 0.353357
0.797314 0.1 0.15 0.871204 0.0202455 0.39016
0.623803 0.1 -0.525 0.913069 0.01411 0.336762
0.623803 0.1 0.525 0.912596 0.0146599 0.414782
0.219992 0.1 0.7875 0.941591 0.0132041 0.391906
0.219992 0.1 -0.7875 0.940945 0.0132983 0.360182
0.149792 0.1 0.80701 0.937477 0.0138994 0.386968
0 0.1 0.825 0.927184 0 0.374607
0 0.1 -0.825 0.927184 0 0.374607
0.797314 0.1 -0.225 0.875188 0.0194151 0.344841
0.797314 0.1 0.225 0.873 0.0201128 0.399157
0.756813 0.1 -0.3375 0.887361 0.0175046 0.337183
0.756813 0.1 0.3375 0.885078 0.0183256 0.409524
0.67013 0.1 0.4875 0.905372 0.0155843 0.416044
0.67013 0.1 -0.4875 0.906439 0.0148948 0.334472
0.835106 0.1 -0.0375 0.86208 0.0215787 0.365539
0.835106 0.1 0.0375 0.861605 0.0217174 0.375622
0.150379 0.1 -0.825 0.937157 0.0139705 0.364164
0.835106 0.1 -0.1125 0.863531 0.0213228 0.355675
0.835106 0.1 0.1125 0.862132 0.0217347 0.385733
0 0.1 -0.84299 0.927184 0 0.374607
0 0.1 0.84299 0.927184 0 0.374607
0.0363518 0.1 -0.84299 0.929956 0.00699188 0.371704
0.0363518 0.1 0.84299 0.929995 0.00695318 0.378076
0.714971 0.1 -0.45 0.898799 0.0159261 0.332417
0.714971 0.1 0.45 0.89701 0.0167788 0.416663
0.411108 0.1 0.746002 0.935479 0.012013 0.405764
0.797314 0.1 -0.3 0.878363 0.0189427 0.336944
0.797314 0.1 0.3 0.87562 0.0198785 0.407742
0.467897 0.1 -0.7125 0.931097 0.0121572 0.343613
0.467897 0.1 0.7125 0.932099 0.0122449 0.40973
0.522865 0.1 0.675 0.927205 0.0127945 0.413223
0.522865 0.1 -0.675 0.926482 0.0125674 0.339902
0.411108 0.1 -0.75 0.934464 0.0119888 0.347276
0.835106 0.1 -0.1875 0.865895 0.0209306 0.346212
0.835107 0.1 0.1875 0.86364 0.021638 0.395654
0.286844 0.1 0.80701 0.940239 0.0124434 0.397059
0.574156 0.1 0.6375 0.922025 0.0133776 0.416223
0.574157 0.1 -0.6375 0.921611 0.0130155 0.336563
0.350249 0.1 -0.7875 0.937618 0.0118578 0.351302
0.350249 0.1 0.7875 0.93863 0.0117969 0.40166
0.756813 0.1 -0.4125 0.890863 0.0169999 0.330882
0.756814 0.1 0.4125 0.888437 0.0179846 0.41664
0.623803 0.1 -0.6 0.915704 0.0137126 0.333268
0.623803 0.1 0.6 0.915506 0.0142622 0.418778
0.075776 0.1 0.8625 0.933098 0.0146324 0.381833
0.075776 0.1 -0.8625 0.933015 0.0147111 0.368552
0.871687 0.1 -3.2767e-18 0.852903 0.0233419 0.369442
0.287374 0.1 -0.825 0.939521 0.0124921 0.3552
0.871687 0.1 -0.075 0.854011 0.0230928 0.358694
0.871687 0.1 0.075 0.852896 0.0234487 0.380342
0.67013 0.1 -0.5625 0.909485 0.0144496 0.330374
0.67013 0.1 0.5625 0.908677 0.0151703 0.42079
0.835106 0.1 0.2625 0.866087 0.0214276 0.405212
0.835106 0.1 -0.2625 0.869127 0.0204248 0.337358
0.797314 0.1 -0.375 0.88213 0.0183856 0.329785
0.797314 0.1 0.375 0.879022 0.0195349 0.415792
0 0.1 -0.88201 0.927184 0 0.374607
0 0.1 0.88201 0.927184 0 0.374607
0.0363518 0.1 0.88201 0.929995 0.00695318 0.378076
0.0363518 0.1 -0.88201 0.929956 0.00699188 0.371704
0.871687 0.1 0.15 0.853997 0.0234115 0.391165
0.871687 0.1 -0.15 0.856168 0.0226951 0.348295
0.714971 0.1 0.525 0.900651 0.0163498 0.422228
0.714971 0.1 -0.525 0.902276 0.0154211 0.327649
0.219993 0.1 0.8625 0.941986 0.013091 0.3924
0.219992 0.1 -0.8625 0.941305 0.0132075 0.359462
0 0.1 0.9 0.927184 0 0.374607
0 0.1 -0.9 0.927184 0 0.374607
0.756813 0.1 0.4875 0.892336 0.0175485 0.423064
0.756814 0.1 -0.4875 0.894719 0.0164402 0.325371
0.871687 0.1 0.225 0.856167 0.0232355 0.401693
0.871687 0.1 -0.225 0.859326 0.0221553 0.338459
0.835106 0.1 -0.3375 0.87308 0.0198242 0.329277
0.835106 0.1 0.3375 0.869429 0.0210949 0.41423
0.41063 0.1 0.80701 0.936398 0.0118121 0.406899
0.90582 0.1 -0.0375 0.84453 0.024872 0.36251
0.905821 0.1 0.0375 0.843878 0.0250931 0.374159
0.522865 0.1 0.746002 0.929184 0.0124621 0.415217
0.150379 0.1 0.9 0.937744 0.0138057 0.387356
0.90582 0.1 0.1125 0.844456 0.0251419 0.385869
0.905821 0.1 -0.1125 0.846378 0.0244946 0.351154
0.522865 0.1 -0.75 0.928307 0.0122556 0.33789
0.574156 0.1 0.7125 0.92448 0.0129876 0.418957
0.574156 0.1 -0.7125 0.923836 0.0126567 0.334137
0.797314 0.1 -0.45 0.886372 0.0177561 0.323457
0.797314 0.1 0.45 0.883107 0.0190831 0.423167
0.467897 0.1 -0.7875 0.93251 0.0118943 0.341958
0.467897 0.1 0.7875 0.933647 0.0119542 0.411399
0.150379 0.1 -0.903998 0.937424 0.0138985 0.363633
0 0.1 0.91799 0.927184 0 0.374607
0 0.1 -0.91799 0.927184 0 0.374607
0.0363518 0.1 0.91799 0.930002 0.00693804 0.378138
0.0363518 0.1 -0.91799 0.929964 0.00697758 0.371584
0.623803 0.1 0.675 0.918481 0.0138256 0.422155
0.623803 0.1 -0.675 0.918408 0.0132973 0.33038
0.411108 0.1 -0.825 0.935547 0.0117649 0.34595
0.871687 0.1 0.3 0.85935 0.0229205 0.411732
0.871687 0.1 -0.3 0.863373 0.0214967 0.32939
0.67013 0.1 -0.6375 0.912646 0.0139795 0.326956
0.67013 0.1 0.6375 0.912132 0.0146964 0.424868
0.90582 0.1 -0.1875 0.849331 0.0239335 0.340281
0.90582 0.1 0.1875 0.846239 0.0250234 0.397375
0.350249 0.1 0.8625 0.939443 0.0115852 0.402531
0.350249 0.1 -0.8625 0.938364 0.0116737 0.350255
0.835106 0.1 -0.4125 0.877637 0.0191341 0.322051
0.835106 0.1 0.4125 0.873609 0.0206394 0.422609
0.714971 0.1 -0.6 0.905933 0.0148865 0.323641
0.714971 0.1 0.6 0.904563 0.0158447 0.427084
0.93886 0.1 -1.15648e-17 0.835037 0.0272345 0.367113
0.075776 0.1 0.9375 0.933113 0.0146016 0.381962
0.075776 0.1 -0.9375 0.933033 0.0146819 0.368301
0.93886 0.1 0.075 0.834945 0.0274105 0.379649
0.93886 0.1 -0.075 0.836469 0.0268648 0.354785
0.756813 0.1 0.5625 0.896642 0.0170222 0.42876
0.756814 0.1 -0.5625 0.898837 0.0158413 0.320694
0.905821 0.1 -0.2625 0.853392 0.0232382 0.330165
0.905821 0.1 0.2625 0.84917 0.0247463 0.408461
0.287374 0.1 0.9 0.940978 0.0122402 0.397812
0.287374 0.1 -0.903998 0.939989 0.0123495 0.35438
0.871687 0.1 0.375 0.863487 0.022466 0.42112
0.871687 0.1 -0.375 0.868151 0.020735 0.32122
0.93886 0.1 -0.15 0.839162 0.0262979 0.342886
0.93886 0.1 0.15 0.836203 0.0273816 0.392116
0.797314 0.1 0.525 0.887733 0.0185307 0.429756
0.797314 0.1 -0.525 0.890966 0.0170758 0.318038
0 0.1 0.95701 0.927184 0 0.374607
0 0.1 -0.95701 0.927184 0 0.374607
0.0363518 0.1 0.95701 0.930002 0.00693804 0.378138
0.0363518 0.1 -0.95701 0.929964 0.00697758 0.371584
0.522433 0.1 0.80701 0.930731 0.012189 0.416724
0.219992 0.1 0.9375 0.942364 0.0129807 0.392733
0.219992 0.1 -0.9375 0.941649 0.0131152 0.3589
0.93886 0.1 0.225 0.838763 0.0271559 0.404249
0.93886 0.1 -0.225 0.843084 0.0255473 0.331658
0.90582 0.1 0.3375 0.853169 0.0243087 0.418913
0.905821 0.1 -0.3375 0.858311 0.0224115 0.320972
0.835106 0.1 -0.4875 0.882656 0.0183768 0.315805
0.835107 0.1 0.4875 0.878483 0.0200688 0.430152
0.969689 0.1 -0.0375 0.826535 0.0292559 0.359257
0.969689 0.1 0.0375 0.825643 0.0295919 0.372584
0.61613 0.1 0.75 0.921457 0.0133692 0.424895
0.574156 0.1 -0.7875 0.926057 0.0122918 0.332229
0.574156 0.1 0.7875 0.926912 0.0125899 0.421127
0 0.1 0.975 0.927184 0 0.374607
0 0.1 -0.975 0.927184 0 0.374607
0.623803 0.1 -0.75 0.921126 0.0128732 0.328089
0.969689 0.1 -0.1125 0.828863 0.0287154 0.346313
0.969689 0.1 0.1125 0.826247 0.0296879 0.386
0.522865 0.1 -0.825 0.930115 0.0119401 0.336325
0.67013 0.1 0.7125 0.915633 0.0141877 0.428243
0.67013 0.1 -0.7125 0.915852 0.0134978 0.324218
0.871687 0.1 -0.45 0.873523 0.0198924 0.314065
0.871687 0.1 0.45 0.868474 0.021877 0.429713
0.467897 0.1 0.8625 0.935168 0.0116603 0.412652
0.467897 0.1 -0.8625 0.933902 0.0116312 0.340679
0.714971 0.1 -0.675 0.909676 0.0143351 0.320399
0.714971 0.1 0.675 0.90861 0.0152844 0.431177
0.93886 0.1 -0.3 0.848096 0.0246433 0.321341
0.93886 0.1 0.3 0.842547 0.0267413 0.415811
0.150379 0.1 0.975 0.937936 0.0137359 0.387532
0.150379 0.1 -0.975 0.937526 0.0138474 0.363342
0.969689 0.1 -0.1875 0.832491 0.0279317 0.333929
0.969689 0.1 0.1875 0.828309 0.0295456 0.399193
0.411108 0.1 0.9 0.937828 0.0114981 0.408063
0.756813 0.1 0.6375 0.90119 0.0164203 0.433635
0.756814 0.1 -0.6375 0.903103 0.0152226 0.316871
0.990306 0.1 -2.19732e-17 0.820896 0.0306371 0.36516
0 0.1 0.99299 0.927184 0 0.374607
0 0.1 -0.99299 0.927184 0 0.374607
0.411108 0.1 -0.903998 0.936462 0.0115605 0.344915
0.990306 0.1 -0.075 0.822597 0.0301603 0.351607
0.990306 0.1 0.075 0.820735 0.0308823 0.378969
0.0363518 0.1 0.99299 0.930005 0.00692494 0.378166
0.0363518 0.1 -0.99299 0.92997 0.00696427 0.371495
0.90582 0.1 -0.4125 0.863965 0.021489 0.312818
0.905821 0.1 0.4125 0.858176 0.0237203 0.42858
0.797314 0.1 -0.6 0.895786 0.0163664 0.313558
0.797314 0.1 0.6 0.892741 0.0178864 0.43549
0.350249 0.1 0.9375 0.940232 0.0113758 0.403129
0.350249 0.1 -0.9375 0.939092 0.0114876 0.349464
0.990306 0.1 0.15 0.82212 0.0308711 0.392715
0.990306 0.1 -0.15 0.825727 0.0294469 0.338538
0.969689 0.1 -0.2625 0.83752 0.0269752 0.322429
0.969689 0.1 0.2625 0.831761 0.0291822 0.4119
0.835106 0.1 -0.5625 0.888 0.0175779 0.310579
0.835106 0.1 0.5625 0.883877 0.0193967 0.436816
0.93886 0.1 -0.375 0.853987 0.0236126 0.312098
0.93886 0.1 0.375 0.84747 0.0261463 0.426597
0.075776 0.1 1.0125 0.933121 0.0145749 0.382021
0.075776 0.1 -1.0125 0.933046 0.0146548 0.368116
0.990306 0.1 -0.225 0.830279 0.0285108 0.326204
0.990306 0.1 0.225 0.824997 0.0306134 0.406099
0.287374 0.1 0.975 0.941551 0.0120805 0.398176
0.287374 0.1 -0.975 0.940598 0.0122116 0.353839
0.871687 0.1 -0.525 0.879334 0.0189961 0.308016
0.871687 0.1 0.525 0.874147 0.0211642 0.437367
1.02149 0.1 -0.0369628 0.810855 0.0330938 0.356372
1.02149 0.1 0.0369628 0.809817 0.0335388 0.370849
0.969689 0.1 -0.3375 0.843533 0.025845 0.311998
0.969689 0.1 0.3375 0.836499 0.028605 0.423865
1.02149 0.1 -0.110888 0.813526 0.0324327 0.34235
1.02149 0.1 0.110888 0.810446 0.0336998 0.385443
0.90582 0.1 0.4875 0.864038 0.0229829 0.43733
0.90582 0.1 -0.4875 0.870192 0.0204953 0.305849
0.623803 0.1 0.819003 0.923521 0.013038 0.427333
0 0.1 1.03201 0.927184 0 0.374607
0 0.1 -1.03201 0.927184 0 0.374607
0.0363518 0.1 1.03201 0.930005 0.00692494 0.378166
0.0363518 0.1 -1.03201 0.92997 0.00696427 0.371495
0.67013 0.1 -0.7875 0.919035 0.0130117 0.322136
0.67013 0.1 0.7875 0.919109 0.0136631 0.430906
0.623803 0.1 -0.825 0.923804 0.0124469 0.326374
0.990306 0.1 -0.3 0.836086 0.0273919 0.314893
0.990306 0.1 0.3 0.829273 0.0301224 0.418853
0.219992 0.1 -1.0125 0.941974 0.0130216 0.358493
0.219993 0.1 1.0125 0.942717 0.0128731 0.392911
0.574156 0.1 0.8625 0.929295 0.0121897 0.422747
0.574157 0.1 -0.8625 0.928232 0.011925 0.330816
0.714971 0.1 -0.75 0.913422 0.0137768 0.317906
0.714971 0.1 0.75 0.912683 0.0146928 0.434483
1.02149 0.1 0.184814 0.812703 0.0335746 0.399818
1.02149 0.1 -0.184814 0.817626 0.0314719 0.32888
0.756814 0.1 -0.7125 0.907407 0.0145927 0.313892
0.756814 0.1 0.7125 0.905835 0.0157685 0.437654
0.522865 0.1 0.9 0.933119 0.0117579 0.418289
0.93886 0.1 -0.45 0.860612 0.022493 0.304096
0.93886 0.1 0.45 0.853419 0.0253794 0.436455
1.04168 0.1 0 0.803775 0.0351203 0.362688
1.04168 0.1 -0.0729162 0.80571 0.0345196 0.348037
1.04168 0.1 0.0729162 0.803536 0.0354624 0.377649
0.522865 0.1 -0.903998 0.931651 0.0116579 0.335166
0.797314 0.1 -0.675 0.900704 0.0156455 0.31002
0.797314 0.1 0.675 0.897966 0.017169 0.4403
0.467897 0.1 0.9375 0.936641 0.011367 0.413509
0.467897 0.1 -0.9375 0.935248 0.0113653 0.339757
0 0.1 1.05 0.927184 0 0.374607
0 0.1 -1.05 0.927184 0 0.374607
0.835106 0.1 -0.6375 0.893517 0.0167632 0.3064
0.835106 0.1 0.6375 0.889628 0.0186252 0.442488
1.04168 0.1 -0.145832 0.809206 0.0336478 0.333896
1.04168 0.1 0.145832 0.804977 0.0354997 0.392561
1.02149 0.1 -0.25874 0.823334 0.0303113 0.316341
1.02149 0.1 0.25874 0.816515 0.0331813 0.413688
0.969689 0.1 -0.4125 0.850483 0.0246096 0.302834
0.969689 0.1 0.4125 0.842429 0.0278323 0.43489
0.411108 0.1 0.975 0.938941 0.011247 0.408634
0.411108 0.1 -0.975 0.937626 0.0113115 0.344226
0.871687 0.1 -0.6 0.885417 0.0180744 0.303104
0.871687 0.1 0.6 0.880312 0.0203421 0.443981
1.0579 0.1 -0.0360525 0.799208 0.0363151 0.354228
1.0579 0.1 0.0360525 0.798067 0.0368448 0.369429
0.990306 0.1 -0.375 0.842912 0.0261278 0.304823
0.990306 0.1 0.375 0.83484 0.0294129 0.430738
0.150379 0.1 1.05 0.938112 0.0136691 0.387598
0.150379 0.1 -1.05 0.937692 0.0137868 0.363095
1.0579 0.1 0.108157 0.798636 0.037061 0.384756
1.0579 0.1 -0.108157 0.80207 0.0355591 0.339537
1.04168 0.1 -0.218749 0.81426 0.0325058 0.320484
1.04168 0.1 0.218749 0.808045 0.0352418 0.407112
0.90582 0.1 -0.5625 0.876812 0.0194666 0.300107
0.90582 0.1 0.5625 0.870569 0.0221173 0.444956
0 0.1 -1.06799 0.927184 0 0.374607
0 0.1 1.06799 0.927184 0 0.374607
0.0363518 0.1 -1.06799 0.929975 0.00695368 0.371436
0.0363518 0.1 1.06799 0.930007 0.00691314 0.378162
0.350249 0.1 1.0125 0.940987 0.0111689 0.403468
0.350249 0.1 -1.0125 0.93979 0.0112992 0.348917
1.0579 0.1 -0.180262 0.806395 0.03447 0.325376
1.0579 0.1 0.180262 0.800887 0.0369599 0.399875
1.02149 0.1 -0.332665 0.830162 0.0289511 0.305043
1.02149 0.1 0.332665 0.821763 0.0325319 0.426781
0.93886 0.1 -0.525 0.867763 0.0213175 0.297437
0.93886 0.1 0.525 0.860213 0.0244556 0.44521
1.08012 0.1 5.49329e-18 0.791067 0.0388906 0.360719
1.04168 0.1 -0.291665 0.820728 0.0311509 0.308199
1.04168 0.1 0.291665 0.812644 0.0347039 0.421019
1.08012 0.1 0.0709941 0.790749 0.0393108 0.376454
1.08012 0.1 -0.0709941 0.793151 0.0381905 0.345326
0.969689 0.1 -0.4875 0.858118 0.0232911 0.295134
0.96969 0.1 0.4875 0.849401 0.0268685 0.444848
1.0579 0.1 0.252367 0.804751 0.0365588 0.414494
1.0579 0.1 -0.252367 0.812398 0.0331506 0.312153
0.990306 0.1 -0.45 0.850596 0.0247649 0.29617
0.990306 0.1 0.45 0.84157 0.0284975 0.441585
0.287374 0.1 -1.05 0.941098 0.0120696 0.353452
0.287374 0.1 1.05 0.942091 0.011923 0.39834
0.714971 0.1 0.821002 0.916353 0.0141454 0.43696
1.08012 0.1 -0.141988 0.796863 0.0371954 0.330459
1.08012 0.1 0.141988 0.79216 0.0393956 0.392148
0.075776 0.1 1.0875 0.933124 0.0145509 0.382013
0.075776 0.1 -1.0875 0.933056 0.0146333 0.367994
0.714971 0.1 -0.825 0.917096 0.0132217 0.316127
0.756813 0.1 -0.7875 0.911662 0.0139626 0.311723
0.756814 0.1 0.7875 0.910468 0.0150924 0.440803
0.67013 0.1 -0.8625 0.922136 0.0125287 0.32068
0.67013 0.1 0.8625 0.922514 0.0131367 0.432878
0.797314 0.1 -0.75 0.905601 0.0149271 0.307396
0.797314 0.1 0.75 0.903255 0.0164083 0.444162
0.623803 0.1 0.9 0.927242 0.012443 0.428509
0.835106 0.1 -0.7125 0.899067 0.0159493 0.303239
0.835106 0.1 0.7125 0.895544 0.0177866 0.447139
0.623803 0.1 -0.903998 0.92609 0.0120719 0.325177
0.574156 0.1 0.9375 0.931592 0.0117909 0.423844
0.574156 0.1 -0.9375 0.930326 0.0115615 0.329866
1.02149 0.1 -0.406591 0.838102 0.0274734 0.295197
1.02149 0.1 0.406591 0.82832 0.0316483 0.438863
1.08012 0.1 -0.212982 0.802189 0.0358956 0.316306
1.08012 0.1 0.212982 0.795255 0.0391533 0.407492
1.10076 0.1 -0.0349809 0.784292 0.0408741 0.351592
1.10076 0.1 0.0349809 0.783061 0.0415128 0.367706
0.871687 0.1 -0.675 0.891602 0.0171508 0.299329
0.871687 0.1 0.675 0.886765 0.0194307 0.449503
1.04168 0.1 -0.364581 0.828354 0.029629 0.297305
1.04168 0.1 0.364581 0.818648 0.0339039 0.43402
1.10076 0.1 -0.104943 0.787367 0.0399986 0.33607
1.10076 0.1 0.104943 0.783598 0.041801 0.383936
0.522865 0.1 0.975 0.934969 0.0114125 0.419052
0.522865 0.1 -0.975 0.933558 0.0113098 0.334438