# wallShearStress  FACE_DATA 60650
# x  y  z  wallShearStress_x  wallShearStress_y  wallShearStress_z
8.75721 0 0.345731 -0.000219041 -6.09877e-06 0.000289771
8.72516 0 0.336919 -0.000276819 -7.29196e-06 0.000149068
8.69439 0 0.328456 -0.000306284 -7.62818e-06 5.93768e-05
8.66483 0 0.320329 -0.000310961 -5.65047e-06 -4.51457e-06
8.63646 0 0.312526 -0.000330621 -3.88574e-06 -5.60837e-05
8.6092 0 0.305031 -0.000362733 -2.78565e-06 -9.77873e-05
8.58303 0 0.297833 -0.000384215 -6.69586e-07 -0.000130699
8.82531 0 0.430728 0.000232737 -9.05171e-06 0.000729528
8.79057 0 0.419435 0.000107236 -1.15618e-05 0.000601723
8.75721 0 0.408591 1.34877e-05 -9.9455e-06 0.000493973
8.72516 0 0.398176 -5.14335e-05 -7.95537e-06 0.000394927
8.69439 0 0.388175 -0.00010366 -6.29764e-06 0.000295847
8.66483 0 0.378571 -0.000148757 -6.29586e-06 0.000208851
8.63646 0 0.369348 -0.000194352 -6.14311e-06 0.000133263
8.6092 0 0.360491 -0.000236951 -7.68466e-06 5.94138e-05
8.58303 0 0.351985 -0.000283404 -4.75921e-06 -1.18395e-05
8.5579 0 0.343817 -0.00031524 -1.81272e-07 -7.99137e-05
8.53376 0 0.335973 -0.000339812 2.67319e-08 -0.000140587
8.51058 0 0.32844 -0.000353033 1.90111e-06 -0.000194343
8.9384 0 0.539403 0.000841033 -6.78874e-06 0.00116698
8.89917 0 0.52469 0.000683707 -1.03804e-05 0.0010786
8.8615 0 0.510562 0.00053182 -7.59493e-06 0.000994951
8.82531 0 0.496994 0.00041769 -6.85124e-06 0.000915327
8.79057 0 0.483964 0.000316408 -6.52643e-06 0.000832639
8.75721 0 0.471451 0.000230733 -6.77138e-06 0.000738166
8.72516 0 0.459434 0.00015853 -8.04387e-06 0.000635389
8.69439 0 0.447895 9.2236e-05 -9.20383e-06 0.000521109
8.66483 0 0.436813 2.3303e-05 -7.5622e-06 0.000409265
8.63646 0 0.426171 -4.20306e-05 -5.92086e-06 0.00030611
8.6092 0 0.415951 -0.000105059 -5.44868e-06 0.000209705
8.58303 0 0.406136 -0.00016659 -5.87329e-06 0.000117842
8.5579 0 0.396712 -0.000219892 -6.61068e-06 2.87949e-05
8.53376 0 0.387661 -0.000268696 -2.39683e-06 -5.17474e-05
8.51058 0 0.378969 -0.000304021 9.83441e-09 -0.000125878
8.48833 0 0.370622 -0.000326255 1.83316e-06 -0.000190174
8.46695 0 0.362605 -0.000328832 3.65176e-06 -0.000250199
8.9384 0 0.611323 0.00089538 -5.33782e-06 0.00133257
8.89917 0 0.594649 0.000796885 -9.18695e-06 0.00127415
8.8615 0 0.578636 0.000675705 -7.9562e-06 0.00120663
8.82531 0 0.563259 0.000573751 -6.31644e-06 0.00112155
8.79057 0 0.548492 0.000482045 -5.32637e-06 0.00102947
8.75721 0 0.534311 0.000398555 -6.91723e-06 0.000929779
8.72516 0 0.520692 0.000323875 -6.1142e-06 0.000823861
8.69439 0 0.507614 0.000255301 -6.56309e-06 0.00070972
8.66483 0 0.495055 0.000178577 -6.88794e-06 0.000593943
8.63646 0 0.482994 0.00010482 -7.32477e-06 0.000481754
8.6092 0 0.471411 3.52005e-05 -7.6233e-06 0.00037111
8.58303 0 0.460288 -3.31101e-05 -5.66789e-06 0.000262664
8.5579 0 0.449607 -9.90636e-05 -5.25343e-06 0.000157069
8.53376 0 0.439349 -0.000163326 -6.25122e-06 5.56198e-05
8.51058 0 0.429498 -0.000219538 -4.82614e-06 -3.92153e-05
8.48833 0 0.420038 -0.000266452 -1.9511e-07 -0.000126407
8.46695 0 0.410953 -0.000295275 1.53925e-06 -0.000203973
8.44642 0 0.402229 -0.000305913 3.72193e-06 -0.000274739
8.42671 0 0.393851 -0.000301484 3.15022e-06 -0.000338265
8.9384 0 0.683243 0.000945694 -4.54419e-06 0.00148718
8.89917 0 0.664607 0.000866364 -5.83333e-06 0.00144205
8.8615 0 0.646711 0.000786407 -5.46108e-06 0.00137382
8.82531 0 0.629525 0.000706832 -5.44935e-06 0.00128487
8.79057 0 0.613021 0.000614426 -5.06559e-06 0.00118923
8.75721 0 0.597171 0.000532561 -5.03306e-06 0.00109042
8.72516 0 0.58195 0.000464386 -5.279e-06 0.00098617
8.69439 0 0.567333 0.00039901 -6.17301e-06 0.000876641
8.66483 0 0.553296 0.000327272 -6.46458e-06 0.000762407
8.63646 0 0.539816 0.000255623 -6.07531e-06 0.000645145
8.6092 0 0.526871 0.000182468 -6.18557e-06 0.000526873
8.58303 0 0.51444 0.000109553 -7.24044e-06 0.000409268
8.5579 0 0.502501 3.73586e-05 -7.85376e-06 0.000293009
8.53376 0 0.491037 -3.51723e-05 -6.04466e-06 0.000178362
8.51058 0 0.480027 -0.000105297 -5.35157e-06 6.75964e-05
8.48833 0 0.469454 -0.000171167 -6.08551e-06 -3.86088e-05
8.46695 0 0.4593 -0.000224262 -2.48972e-06 -0.000136662
8.44642 0 0.44955 -0.000261762 2.90331e-06 -0.000225961
8.42671 0 0.440186 -0.000275372 3.16742e-06 -0.000306879
8.40778 0 0.431194 -0.000275354 2.63624e-06 -0.000378554
8.38959 0 0.422558 -0.000266144 3.66838e-06 -0.000437387
8.9384 0 0.755163 0.0009633 -9.23613e-06 0.00162855
8.89917 0 0.734566 0.000897937 -5.90203e-06 0.00157941
8.8615 0 0.714786 0.000850762 -6.35667e-06 0.00150382
8.82531 0 0.69579 0.000785106 -6.24222e-06 0.00142313
8.79057 0 0.677549 0.000713884 -4.96575e-06 0.00133333
8.75721 0 0.660031 0.00064419 -4.91102e-06 0.00122898
8.72516 0 0.643208 0.000578881 -4.93861e-06 0.00112518
8.69439 0 0.627053 0.000520417 -5.44144e-06 0.00102195
8.66483 0 0.611538 0.000459045 -5.92698e-06 0.000913351
8.63646 0 0.596639 0.00039455 -6.08392e-06 0.000799014
8.6092 0 0.582331 0.000325284 -6.34822e-06 0.000680406
8.58303 0 0.568591 0.000254144 -6.15122e-06 0.000559527
8.5579 0 0.555397 0.000181088 -6.47285e-06 0.00043743
8.53376 0 0.542725 0.000106656 -7.65053e-06 0.000314883
8.51058 0 0.530556 3.09445e-05 -7.94525e-06 0.000193039
8.48833 0 0.518871 -4.49283e-05 -6.40188e-06 7.29552e-05
8.46695 0 0.507648 -0.000115387 -4.69476e-06 -4.2157e-05
8.44642 0 0.496871 -0.000176457 -3.91157e-06 -0.000150999
8.42671 0 0.486522 -0.000218802 5.13919e-07 -0.000250071
8.40778 0 0.476583 -0.000240934 4.20429e-06 -0.000340518
8.38959 0 0.467038 -0.00024167 3.04747e-06 -0.000422748
8.9384 0 0.827083 0.000989215 -6.47226e-06 0.00179384
8.89917 0 0.804525 0.000942793 -4.36199e-06 0.00172523
8.8615 0 0.782861 0.000896716 -5.66262e-06 0.0016438
8.82531 0 0.762056 0.000845338 -5.72893e-06 0.00156007
8.79057 0 0.742077 0.000796395 -5.65783e-06 0.00146752
8.75721 0 0.722891 0.000741795 -4.73631e-06 0.00137252
8.72516 0 0.704466 0.000679709 -4.40095e-06 0.00126513
8.69439 0 0.686772 0.000625249 -4.78641e-06 0.00116134
8.66483 0 0.66978 0.000573831 -5.19358e-06 0.00105659
8.63646 0 0.653462 0.000519628 -5.719e-06 0.000946986
8.6092 0 0.637792 0.000458825 -6.14011e-06 0.000832333
8.58303 0 0.622743 0.000394397 -6.41239e-06 0.000712307
8.5579 0 0.608291 0.000325432 -6.54864e-06 0.000588235
8.53376 0 0.594413 0.000253594 -6.36614e-06 0.000461841
8.51058 0 0.581085 0.000178318 -6.96281e-06 0.00033349
8.48833 0 0.568287 0.000100236 -8.24753e-06 0.000204658
8.46695 0 0.555995 2.18517e-05 -8.33722e-06 7.7102e-05
8.44642 0 0.544192 -5.37074e-05 -5.28345e-06 -4.75629e-05
8.42671 0 0.532857 -0.000119459 -4.2107e-06 -0.00016597
8.40778 0 0.521972 -0.000169164 -1.05031e-06 -0.000275288
8.38959 0 0.511518 -0.000195565 3.18677e-06 -0.000377025
8.9384 0 0.899004 0.00100891 -7.0288e-06 0.00194247
8.89917 0 0.874483 0.000964665 -3.99834e-06 0.00187413
8.8615 0 0.850935 0.000931218 -5.92519e-06 0.00178654
8.82531 0 0.828322 0.000891571 -5.31338e-06 0.00170113
8.79057 0 0.806606 0.000851207 -6.43291e-06 0.00160718
8.75721 0 0.785751 0.000814885 -5.73424e-06 0.00151413
8.72516 0 0.765724 0.000771557 -4.5837e-06 0.00141752
8.69439 0 0.746491 0.000719021 -4.55372e-06 0.00130924
8.66483 0 0.728022 0.000669795 -4.90547e-06 0.00120023
8.63646 0 0.710285 0.000624041 -5.22962e-06 0.00109194
8.6092 0 0.693252 0.000574885 -5.57159e-06 0.000981997
8.58303 0 0.676895 0.000521904 -6.15687e-06 0.000866216
8.5579 0 0.661186 0.000461089 -6.62329e-06 0.000744765
8.53376 0 0.646101 0.000395753 -6.75948e-06 0.000618741
8.51058 0 0.631614 0.000325806 -6.94295e-06 0.00048846
8.48833 0 0.617703 0.000251629 -6.53246e-06 0.000354803
8.46695 0 0.604343 0.000173749 -7.65968e-06 0.00021948
8.44642 0 0.591513 9.39469e-05 -9.51773e-06 8.4331e-05
8.42671 0 0.579192 1.65304e-05 -7.30082e-06 -4.84451e-05
8.40778 0 0.56736 -5.35904e-05 -3.6013e-06 -0.000176661
8.38959 0 0.555998 -0.000106129 -1.23505e-06 -0.000296221
8.37214 0 0.545086 -0.000139758 7.78186e-07 -0.000406538
8.9384 0 0.970925 0.00100786 -8.88394e-06 0.00212762
8.89917 0 0.944442 0.000968243 -4.10461e-06 0.00205421
8.8615 0 0.91901 0.000947798 -6.11658e-06 0.00195233
8.82531 0 0.894588 0.000921164 -5.09759e-06 0.00185963
8.79057 0 0.871135 0.000894178 -5.48403e-06 0.00176724
8.75721 0 0.848612 0.000862985 -6.44969e-06 0.00166835
8.72516 0 0.826982 0.000835857 -5.59866e-06 0.00157212
8.69439 0 0.806211 0.000804758 -4.65453e-06 0.00147118
8.66483 0 0.786263 0.000760923 -4.56849e-06 0.00136006
8.63646 0 0.767108 0.000716152 -4.71953e-06 0.00124685
8.6092 0 0.748712 0.00067178 -5.16552e-06 0.00113459
8.58303 0 0.731046 0.000629673 -5.5089e-06 0.00102021
8.5579 0 0.714081 0.000580745 -5.92526e-06 0.000903202
8.53376 0 0.697789 0.000526376 -6.50997e-06 0.000781238
8.51058 0 0.682144 0.000465727 -6.86871e-06 0.000653665
8.48833 0 0.667119 0.000399956 -7.10669e-06 0.000520495
8.46695 0 0.65269 0.000328057 -7.20923e-06 0.000382007
8.44642 0 0.638834 0.000251494 -6.99053e-06 0.000241123
8.42671 0 0.625528 0.000172703 -8.69376e-06 9.96482e-05
8.40778 0 0.612749 9.51449e-05 -9.0322e-06 -4.05955e-05
8.38959 0 0.600478 2.38531e-05 -6.10986e-06 -0.000177451
8.37214 0 0.588693 -3.64137e-05 -9.53222e-07 -0.000305588
8.97926 0 1.07246 0.000956441 1.39079e-06 0.00246746
8.9384 0 1.04284 0.00100931 -9.65453e-06 0.00232245
8.89917 0 1.0144 0.000980586 -3.61031e-06 0.00225306
8.8615 0 0.987085 0.000968399 -6.86935e-06 0.00214504
8.82531 0 0.960854 0.000940347 -5.81711e-06 0.00204221
8.79057 0 0.935663 0.000922985 -5.66034e-06 0.00194276
8.75721 0 0.911471 0.000905389 -5.90822e-06 0.00184386
8.72516 0 0.88824 0.000881959 -5.90611e-06 0.00173882
8.69439 0 0.86593 0.000858065 -6.66034e-06 0.0016325
8.66483 0 0.844505 0.000831848 -4.86611e-06 0.00152759
8.63646 0 0.823931 0.00079528 -4.8565e-06 0.00141656
8.6092 0 0.804172 0.000758271 -5.02731e-06 0.00130153
8.58303 0 0.785198 0.000720483 -5.19857e-06 0.00118515
8.5579 0 0.766976 0.000676821 -5.58588e-06 0.00106687
8.53376 0 0.749477 0.000634159 -5.84011e-06 0.000947013
8.51058 0 0.732673 0.00058623 -6.40112e-06 0.000823974
8.48833 0 0.716535 0.000532715 -6.94104e-06 0.00069519
8.46695 0 0.701038 0.000471826 -7.33704e-06 0.000559318
8.44642 0 0.686155 0.000403982 -7.41439e-06 0.000418106
8.42671 0 0.671863 0.000331318 -7.70804e-06 0.000273244
8.40778 0 0.658138 0.000255613 -8.03693e-06 0.000126174
8.38959 0 0.644957 0.000179821 -8.46379e-06 -2.0806e-05
8.37214 0 0.6323 0.000107261 -7.91116e-06 -0.00016546
8.97926 0 1.14643 0.000930652 2.69167e-06 0.00269471
8.9384 0 1.11476 0.000993868 -1.03365e-05 0.00251723
8.89917 0 1.08436 0.000962547 -2.45188e-06 0.00245517
8.8615 0 1.05516 0.000969449 -6.69863e-06 0.00234624
8.82531 0 1.02712 0.000958658 -5.00995e-06 0.00224262
8.79057 0 1.00019 0.00094751 -5.50216e-06 0.00213527
8.75721 0 0.974331 0.000934894 -5.2111e-06 0.00202945
8.72516 0 0.949498 0.000919711 -5.25742e-06 0.001922
8.69439 0 0.925649 0.00089681 -6.35215e-06 0.00181014
8.66483 0 0.902747 0.00087401 -6.51895e-06 0.00169817
8.63646 0 0.880753 0.000852926 -5.25471e-06 0.00159215
8.6092 0 0.859632 0.000828053 -4.986e-06 0.00148102
8.58303 0 0.839349 0.00079953 -5.0564e-06 0.00136485
8.5579 0 0.819871 0.000765944 -5.00413e-06 0.00124518
8.53376 0 0.801165 0.000727801 -5.03009e-06 0.00112267
8.51058 0 0.783202 0.000685208 -5.74739e-06 0.000998754
8.48833 0 0.765951 0.000644821 -6.18887e-06 0.000873052
8.46695 0 0.749385 0.000597651 -6.91814e-06 0.000741897
8.44642 0 0.733476 0.000541531 -7.41481e-06 0.00060594
8.42671 0 0.718198 0.000479495 -7.58351e-06 0.000464403
8.40778 0 0.703526 0.00041261 -7.93035e-06 0.000317249
8.38959 0 0.689437 0.000341179 -8.94506e-06 0.000166928
8.37214 0 0.675907 0.000268154 -8.80079e-06 1.55388e-05
8.97926 0 1.22039 0.000879952 2.60067e-06 0.00293638
8.9384 0 1.18669 0.000972948 -1.1937e-05 0.00273059
8.89917 0 1.15432 0.000944542 -1.5228e-06 0.00266219
8.8615 0 1.12324 0.000958732 -6.64916e-06 0.00255518
8.82531 0 1.09339 0.00095399 -5.33753e-06 0.00245288
8.79057 0 1.06472 0.000945538 -6.14901e-06 0.0023477
8.75721 0 1.03719 0.000932689 -6.90054e-06 0.00223519
8.72516 0 1.01076 0.000918706 -7.73665e-06 0.00212289
8.69439 0 0.985369 0.000909913 -8.09997e-06 0.00200868
8.66483 0 0.960988 0.000899537 -7.38644e-06 0.0018979
8.63646 0 0.937576 0.000885496 -8.06507e-06 0.0017815
8.6092 0 0.915092 0.00087507 -6.21377e-06 0.00166863
8.58303 0 0.893501 0.000854651 -5.63705e-06 0.00155519
8.5579 0 0.872766 0.000829202 -5.40779e-06 0.00143543
8.53376 0 0.852853 0.000802086 -5.12968e-06 0.00131047
8.51058 0 0.833731 0.000768787 -5.10445e-06 0.0011841
8.48833 0 0.815368 0.000735769 -5.32469e-06 0.0010568
8.46695 0 0.797732 0.000697382 -5.69633e-06 0.000927162
8.44642 0 0.780797 0.000654772 -6.31025e-06 0.00079321
8.42671 0 0.764534 0.000607492 -6.74668e-06 0.000656686
8.40778 0 0.748915 0.000555424 -7.06834e-06 0.000513782
8.38959 0 0.733917 0.000496725 -7.28134e-06 0.000364595
8.37214 0 0.719513 0.000433413 -8.45467e-06 0.00021175
8.97926 0 1.29435 0.000818864 3.61272e-06 0.00316244
8.9384 0 1.25861 0.000934948 -1.22963e-05 0.00295115
8.89917 0 1.22428 0.000905651 -4.35867e-07 0.00286834
8.8615 0 1.19131 0.000924092 -4.68997e-06 0.00276031
8.82531 0 1.15965 0.000935375 -4.07672e-06 0.00265044
8.79057 0 1.12925 0.000941972 -4.66714e-06 0.00254341
8.75721 0 1.10005 0.000944278 -5.18711e-06 0.00243402
8.72516 0 1.07202 0.000944413 -5.28273e-06 0.00232628
8.69439 0 1.04509 0.00094043 -5.94378e-06 0.00221539
8.66483 0 1.01923 0.000936027 -5.87556e-06 0.00210361
8.63646 0 0.994399 0.000931633 -6.45722e-06 0.00198546
8.6092 0 0.970553 0.000914005 -6.75811e-06 0.00186545
8.58303 0 0.947652 0.00089209 -8.14e-06 0.00174937
8.5579 0 0.925661 0.000879244 -6.61335e-06 0.00163373
8.53376 0 0.904541 0.000857756 -6.67448e-06 0.00151311
8.51058 0 0.88426 0.000830146 -6.8438e-06 0.00138781
8.48833 0 0.864784 0.000801464 -7.1222e-06 0.00126131
8.46695 0 0.84608 0.000770144 -7.32853e-06 0.00113356
8.44642 0 0.828118 0.00073283 -7.62371e-06 0.00100141
8.42671 0 0.810869 0.000690197 -8.31796e-06 0.000868817
8.40778 0 0.794304 0.00064921 -9.01321e-06 0.000732302
8.38959 0 0.778397 0.000600367 -9.4171e-06 0.000590568
8.37214 0 0.76312 0.000545633 -9.47892e-06 0.000443356
8.97926 0 1.36832 0.000745311 -4.88808e-07 0.00332948
8.9384 0 1.33053 0.000869458 -2.13525e-05 0.00318927
8.89917 0 1.29423 0.000854144 -1.05203e-05 0.00310989
8.8615 0 1.25938 0.000868028 -1.10429e-05 0.00300593
8.82531 0 1.22592 0.000882033 -9.06022e-06 0.0028924
8.79057 0 1.19378 0.000894628 -7.19484e-06 0.00277817
8.75721 0 1.16291 0.000906782 -5.46079e-06 0.00266124
8.72516 0 1.13327 0.000917728 -3.91523e-06 0.00254483
8.69439 0 1.10481 0.000928316 -3.90952e-06 0.00242301
8.66484 0 1.07747 0.000939009 -4.70797e-06 0.00229749
8.63646 0 1.05122 0.000940945 -5.35757e-06 0.00217149
8.6092 0 1.02601 0.000931548 -4.06696e-06 0.00204961
8.58303 0 1.0018 0.000926468 -3.93513e-06 0.00192962
8.5579 0 0.978555 0.000926642 -3.79462e-06 0.00180524
8.53376 0 0.956229 0.000923727 -2.73706e-06 0.0016843
8.51058 0 0.934789 0.000909433 -1.78664e-06 0.00156506
8.48833 0 0.9142 0.000890535 -1.49425e-06 0.00143996
8.46695 0 0.894427 0.000874459 -1.4025e-06 0.00131069
8.44642 0 0.875439 0.000852785 -1.03715e-06 0.0011764
8.42671 0 0.857205 0.000824736 -1.23847e-06 0.0010399
8.40778 0 0.839693 0.000798719 -1.54583e-06 0.000902805
8.38959 0 0.822877 0.000768329 -1.80313e-06 0.000763336
8.37214 0 0.806727 0.000732578 -2.18257e-06 0.000619203
8.97926 0 1.44228 0.000728489 1.01101e-05 0.00336593
8.9384 0 1.40245 0.000873587 -6.50551e-06 0.00331629
8.89917 0 1.36419 0.000913666 -6.77407e-06 0.00326121
8.8615 0 1.32746 0.000924685 -8.30242e-06 0.00318774
8.82531 0 1.29218 0.000929542 -9.91233e-06 0.00309258
8.79057 0 1.2583 0.000932218 -1.15035e-05 0.00298498
8.75721 0 1.22577 0.000932012 -1.27385e-05 0.00286832
8.72516 0 1.19453 0.000933053 -1.35232e-05 0.00275012
8.69439 0 1.16453 0.000931512 -1.35985e-05 0.002633
8.66483 0 1.13571 0.000921406 -1.33779e-05 0.00252019
8.63646 0 1.10804 0.000911818 -1.39498e-05 0.00240623
8.6092 0 1.08147 0.000904728 -1.58185e-05 0.00228243
8.58303 0 1.05595 0.000898152 -1.69713e-05 0.00215404
8.5579 0 1.03145 0.000889141 -1.7068e-05 0.00203237
8.53376 0 1.00792 0.000871818 -1.86263e-05 0.00191208
8.51058 0 0.985317 0.000850729 -1.94555e-05 0.00179439
8.48833 0 0.963616 0.000833718 -1.89292e-05 0.00167583
8.46695 0 0.942775 0.000810056 -1.87335e-05 0.00155778
8.44642 0 0.92276 0.000777405 -1.91716e-05 0.00143618
8.42671 0 0.90354 0.000738416 -1.95218e-05 0.00130593
8.40778 0 0.885082 0.000697356 -2.01051e-05 0.00117346
8.38959 0 0.867357 0.000653855 -2.07019e-05 0.00104045
8.37214 0 0.850334 0.000604972 -2.12411e-05 0.000905477
7.66922 0 0.966948 0.00041155 -9.1933e-06 -7.20948e-05
7.67296 0 0.988324 0.000394465 -9.24068e-06 5.97563e-06
7.67685 0 1.01058 0.000379257 -8.83505e-06 8.0369e-05
7.68091 0 1.03376 0.000364523 -7.06196e-06 0.000147735
7.68513 0 1.0579 0.000349589 -5.94339e-06 0.000203873
7.68953 0 1.08303 0.000332467 -5.40493e-06 0.000247543
7.69411 0 1.1092 0.00031194 -4.78745e-06 0.00027796
7.69888 0 1.13646 0.000288538 -4.41043e-06 0.000296113
7.70385 0 1.16483 0.000262503 -3.85072e-06 0.000302686
7.70902 0 1.19439 0.00022737 -2.82991e-06 0.00029303
7.7144 0 1.22516 0.000180557 -1.77497e-06 0.000259475
7.72001 0 1.25721 0.000102197 -2.64935e-06 0.000200884
7.72585 0 1.29057 2.37802e-06 -4.99556e-06 0.000122338
7.73193 0 1.32531 -0.000145791 -8.31507e-06 5.17446e-05
7.70425 0 0.907776 0.000590485 -4.76796e-06 -0.000251089
7.70851 0 0.926707 0.00054813 -6.92544e-06 -0.000179061
7.71295 0 0.946421 0.000525241 -1.00535e-05 -9.44441e-05
7.71757 0 0.966948 0.000510693 -1.04486e-05 -1.5454e-06
7.72238 0 0.988324 0.00049962 -9.92249e-06 9.32347e-05
7.72738 0 1.01058 0.000490123 -7.93136e-06 0.000183549
7.7326 0 1.03376 0.000480391 -7.50634e-06 0.000265486
7.73803 0 1.0579 0.000470751 -6.47834e-06 0.000335751
7.74368 0 1.08303 0.000459911 -5.59374e-06 0.000391524
7.74957 0 1.1092 0.000442631 -4.361e-06 0.000437121
7.7557 0 1.13646 0.000428904 -3.5136e-06 0.000466985
7.76209 0 1.16484 0.000410355 -2.86115e-06 0.000480911
7.76874 0 1.19439 0.000386413 -2.64263e-06 0.000483272
7.77566 0 1.22516 0.000358762 -2.24667e-06 0.000472808
7.78287 0 1.25721 0.000321781 -1.9843e-06 0.000448881
7.79038 0 1.29057 0.000270205 -9.67005e-07 0.000400926
7.7982 0 1.32531 0.000197433 -2.90706e-06 0.000348751
7.73984 0 0.872138 0.000824758 -4.20054e-06 -0.000358383
7.74464 0 0.889597 0.000715001 -4.84602e-06 -0.000299951
7.74964 0 0.907777 0.000654328 -6.77142e-06 -0.000227511
7.75484 0 0.926707 0.000624327 -9.02484e-06 -0.000139467
7.76026 0 0.94642 0.000608701 -1.06297e-05 -3.64292e-05
7.76591 0 0.966948 0.000599164 -1.10268e-05 7.38078e-05
7.77179 0 0.988324 0.000592108 -9.72372e-06 0.000185039
7.77791 0 1.01058 0.000586626 -8.61612e-06 0.000291204
7.78428 0 1.03376 0.000581373 -7.81411e-06 0.000388142
7.79092 0 1.0579 0.000577232 -6.76582e-06 0.000473018
7.79783 0 1.08303 0.000568474 -5.56275e-06 0.000534632
7.80503 0 1.1092 0.000553114 -4.34906e-06 0.000593751
7.81252 0 1.13646 0.000543881 -3.51558e-06 0.000644087
7.82033 0 1.16483 0.000531925 -2.82461e-06 0.000669364
7.82845 0 1.19439 0.000517709 -2.13755e-06 0.000683815
7.83692 0 1.22516 0.000500653 -1.17685e-06 0.000683097
7.84573 0 1.25721 0.000476496 -1.29272e-06 0.00066828
7.85491 0 1.29057 0.000445786 -2.51721e-07 0.000637556
7.86446 0 1.32531 0.000406062 -1.81065e-06 0.000597976
7.87441 0 1.3615 0.000346036 1.38053e-06 0.000523733
7.778 0 0.855372 0.000991254 -2.85093e-06 -0.000405634
7.78345 0 0.872138 0.000848152 -4.23749e-06 -0.000354396
7.78912 0 0.889597 0.000760016 -5.33122e-06 -0.000287029
7.79503 0 0.907776 0.00071504 -7.31584e-06 -0.000199874
7.80118 0 0.926708 0.000693838 -1.07387e-05 -9.37543e-05
7.80759 0 0.94642 0.000683253 -1.21829e-05 2.71832e-05
7.81425 0 0.966948 0.000677847 -1.12886e-05 0.000153747
7.82121 0 0.988324 0.000673875 -9.39572e-06 0.000279729
7.82844 0 1.01058 0.000670871 -9.00349e-06 0.000401081
7.83597 0 1.03376 0.000669383 -8.40813e-06 0.000515038
7.84382 0 1.0579 0.000668784 -7.0896e-06 0.00060813
7.85199 0 1.08303 0.000660546 -5.47164e-06 0.000677054
7.86049 0 1.1092 0.000650111 -4.70198e-06 0.000752569
7.86935 0 1.13646 0.000643568 -3.85694e-06 0.000821617
7.87857 0 1.16484 0.000636516 -2.78045e-06 0.000861083
7.88818 0 1.19439 0.000627656 -2.29261e-06 0.000888412
7.89818 0 1.22516 0.000617291 -1.3997e-06 0.00090139
7.90859 0 1.25721 0.000604655 -1.18973e-06 0.000900565
7.91943 0 1.29057 0.000588984 -9.73751e-08 0.000882713
7.93073 0 1.32531 0.000568567 -8.64028e-07 0.000849284
7.94249 0 1.3615 0.000540641 1.17357e-06 0.000796814
7.81473 0 0.839271 0.00115429 -3.36589e-07 -0.000458136
7.82076 0 0.855372 0.000992523 -2.61473e-06 -0.000412521
7.82705 0 0.872138 0.000869409 -3.68251e-06 -0.000354634
7.8336 0 0.889597 0.000800471 -6.43708e-06 -0.00027187
7.84042 0 0.907777 0.000767917 -1.00872e-05 -0.000166411
7.84752 0 0.926707 0.000753099 -1.17295e-05 -4.08085e-05
7.85491 0 0.946421 0.000746624 -1.26033e-05 9.74592e-05
7.8626 0 0.966948 0.000744347 -1.06045e-05 0.000239322
7.87062 0 0.988324 0.00074285 -9.7588e-06 0.000379083
7.87897 0 1.01058 0.000742729 -9.16906e-06 0.000514546
7.88766 0 1.03376 0.000743591 -8.8826e-06 0.000642058
7.89671 0 1.0579 0.000740943 -7.05428e-06 0.000744365
7.90614 0 1.08303 0.00073507 -5.41611e-06 0.00082391
7.91595 0 1.1092 0.00073346 -4.85785e-06 0.000915066
7.92617 0 1.13646 0.000727237 -3.83375e-06 0.000999164
7.93681 0 1.16483 0.000722075 -2.86549e-06 0.00105342
7.9479 0 1.19439 0.000716422 -2.453e-06 0.00109693
7.95943 0 1.22516 0.000710717 -1.59868e-06 0.00112658
7.97145 0 1.25721 0.000703394 -1.3422e-06 0.00114212
7.98397 0 1.29057 0.000695196 -2.97824e-07 0.00114309
7.99699 0 1.32531 0.000684303 -5.99852e-07 0.00112873
8.01056 0 1.3615 0.000670958 1.21727e-06 0.00109602
8.02469 0 1.39917 0.000652254 -1.47995e-06 0.00104888
7.85669 0 0.839271 0.00113721 -1.44673e-07 -0.000483111
7.86353 0 0.855372 0.000983093 -2.95179e-06 -0.000424344
7.87066 0 0.872138 0.000883369 -4.76543e-06 -0.000351016
7.87808 0 0.889596 0.000832469 -7.16497e-06 -0.000249165
7.88581 0 0.907777 0.000810312 -1.17513e-05 -0.000123019
7.89385 0 0.926708 0.000801255 -1.35325e-05 2.0833e-05
7.90223 0 0.94642 0.000798753 -1.27553e-05 0.000174596
7.91095 0 0.966948 0.000799555 -1.00286e-05 0.000330573
7.92003 0 0.988324 0.0008009 -1.01587e-05 0.00048356
7.9295 0 1.01058 0.000803661 -9.48532e-06 0.000630759
7.93935 0 1.03376 0.000805971 -9.13097e-06 0.000760048
7.94961 0 1.0579 0.000800417 -7.17963e-06 0.000871044
7.96029 0 1.08303 0.000796448 -6.52277e-06 0.000978741
7.97141 0 1.1092 0.000800627 -4.26634e-06 0.00108248
7.98299 0 1.13646 0.00079345 -3.99045e-06 0.00116871
7.99505 0 1.16484 0.000789154 -3.29345e-06 0.0012408
8.00761 0 1.19439 0.000784623 -2.85996e-06 0.00130138
8.02069 0 1.22516 0.000780716 -2.02728e-06 0.00134918
8.03431 0 1.25721 0.000775935 -1.87755e-06 0.00138245
8.04849 0 1.29057 0.000770532 -1.05695e-06 0.00140153
8.06326 0 1.32531 0.000763542 -1.32677e-06 0.00140531
8.07864 0 1.3615 0.000754045 4.81253e-07 0.00138938
8.09465 0 1.39917 0.000739402 -1.1071e-06 0.00135031
7.89865 0 0.839271 0.00109274 -1.96028e-07 -0.000503803
7.9063 0 0.855372 0.000960944 -2.5977e-06 -0.000431166
7.91427 0 0.872138 0.0008866 -6.02815e-06 -0.000334957
7.92256 0 0.889597 0.000851827 -1.0331e-05 -0.000210158
7.93119 0 0.907776 0.000837969 -1.233e-05 -6.27968e-05
7.94019 0 0.926708 0.00083398 -1.33785e-05 9.86955e-05
7.94955 0 0.94642 0.000835288 -1.1546e-05 0.00026637
7.9593 0 0.966948 0.000838814 -1.02088e-05 0.000434297
7.96945 0 0.988324 0.000843046 -1.00645e-05 0.000598868
7.98003 0 1.01058 0.000847762 -9.09536e-06 0.000754893
7.99104 0 1.03376 0.000849702 -8.48562e-06 0.000885109
8.0025 0 1.0579 0.000845042 -6.9858e-06 0.00100056
8.01444 0 1.08303 0.000843044 -6.47456e-06 0.0011307
8.02687 0 1.1092 0.000844117 -4.03502e-06 0.00124768
8.03981 0 1.13646 0.000838798 -3.93358e-06 0.00134048
8.05329 0 1.16483 0.000834835 -3.23828e-06 0.00142701
8.06733 0 1.19439 0.000830195 -2.89162e-06 0.00150286
8.08195 0 1.22516 0.000825834 -2.16037e-06 0.00156786
8.09717 0 1.25721 0.000820554 -2.11632e-06 0.00161928
8.11302 0 1.29057 0.000814956 -1.45113e-06 0.00165688
8.12952 0 1.32531 0.00080698 -1.57813e-06 0.00167816
8.14671 0 1.3615 0.000796594 -1.04427e-07 0.00168025
8.16461 0 1.39917 0.000780428 -1.08199e-06 0.00165668
8.18324 0 1.4384 0.000762828 4.3706e-06 0.00159998
7.94062 0 0.839271 0.00103725 -1.72194e-06 -0.000516893
7.94907 0 0.855372 0.000936482 -4.87474e-06 -0.000426529
7.95787 0 0.872138 0.000884803 -7.38317e-06 -0.000305735
7.96704 0 0.889597 0.000864038 -1.24819e-05 -0.000158136
7.97658 0 0.907777 0.000858455 -1.4788e-05 7.81573e-06
7.98652 0 0.926707 0.000860199 -1.3589e-05 0.000182523
7.99687 0 0.946421 0.000865758 -1.05584e-05 0.000361029
8.00765 0 0.966948 0.000872498 -1.10244e-05 0.000537737
8.01887 0 0.988324 0.000879284 -1.08336e-05 0.000709915
8.03055 0 1.01058 0.000884552 -9.44377e-06 0.000869235
8.04273 0 1.03376 0.000885092 -9.10706e-06 0.00100277
8.0554 0 1.0579 0.00088385 -7.82186e-06 0.00112513
8.06859 0 1.08303 0.000881816 -6.58399e-06 0.00127051
8.08233 0 1.1092 0.000879743 -4.73798e-06 0.00139762
8.09664 0 1.13646 0.000874092 -4.70159e-06 0.00150116
8.11154 0 1.16484 0.000868782 -3.97906e-06 0.0016001
8.12705 0 1.19439 0.000862276 -3.57825e-06 0.00168947
8.14321 0 1.22516 0.000855458 -2.87099e-06 0.00176956
8.16003 0 1.25721 0.000847608 -2.75859e-06 0.00183762
8.17755 0 1.29057 0.000839696 -2.1454e-06 0.00189276
8.19579 0 1.32531 0.000829223 -2.19744e-06 0.00193099
8.21479 0 1.3615 0.0008158 -8.4547e-07 0.00195052
8.23457 0 1.39917 0.000797888 -1.5026e-06 0.00194541
8.25516 0 1.4384 0.000779108 3.40736e-06 0.00191008
8.27661 0 1.47926 0.000752577 -7.28747e-06 0.0018508
7.99184 0 0.855371 0.00089613 -5.7534e-06 -0.000386727
8.00148 0 0.872138 0.000866964 -1.13908e-05 -0.000236713
8.01152 0 0.889596 0.000858492 -1.23615e-05 -6.71761e-05
8.02197 0 0.907777 0.000860919 -1.33607e-05 0.000115526
8.03286 0 0.926708 0.000868054 -1.08238e-05 0.000302704
8.04419 0 0.94642 0.000877009 -9.85385e-06 0.000488568
8.05599 0 0.966948 0.00088667 -9.78049e-06 0.000670231
8.06829 0 0.988324 0.000895121 -9.37461e-06 0.000844049
8.08108 0 1.01058 0.000900697 -7.9644e-06 0.00100011
8.09441 0 1.03376 0.000899528 -9.05137e-06 0.00113995
8.10829 0 1.0579 0.000902051 -5.75063e-06 0.00127018
8.12274 0 1.08303 0.000898432 -5.35685e-06 0.00141705
8.13779 0 1.1092 0.000895045 -4.17567e-06 0.0015514
8.15346 0 1.13646 0.000888503 -4.29364e-06 0.00166248
8.16978 0 1.16483 0.000881913 -3.67761e-06 0.00177085
8.18677 0 1.19439 0.000873427 -3.43855e-06 0.00187018
8.20447 0 1.22516 0.000863777 -2.70811e-06 0.00196137
8.22289 0 1.25721 0.000852046 -2.72699e-06 0.00204254
8.24208 0 1.29057 0.000839419 -2.49166e-06 0.00211148
8.26206 0 1.32531 0.000825195 -2.95969e-06 0.00216348
8.28286 0 1.3615 0.000809287 -2.19885e-06 0.00219889
8.30453 0 1.39917 0.000789986 -2.66002e-06 0.00221263
8.32708 0 1.4384 0.00076946 9.59339e-07 0.00220085
8.35057 0 1.47926 0.000745805 -8.86131e-06 0.00216766
8.03461 0 0.855372 0.00086226 -9.22364e-06 -0.000332368
8.04508 0 0.872138 0.000850196 -1.32638e-05 -0.000160688
8.056 0 0.889597 0.000853038 -1.51522e-05 2.41502e-05
8.06736 0 0.907776 0.000863056 -1.39436e-05 0.000212702
8.07919 0 0.926707 0.000876973 -1.09079e-05 0.000402876
8.09151 0 0.946421 0.000891632 -1.15553e-05 0.000591652
8.10434 0 0.966948 0.000904853 -1.11301e-05 0.000775006
8.1177 0 0.988324 0.000914371 -1.05488e-05 0.000948684
8.13161 0 1.01058 0.000920271 -9.15088e-06 0.00109953
8.1461 0 1.03376 0.000919056 -1.07288e-05 0.0012398
8.16118 0 1.0579 0.000921543 -6.74422e-06 0.0013816
8.17689 0 1.08303 0.000919767 -6.08514e-06 0.00153114
8.19325 0 1.1092 0.000913327 -5.55188e-06 0.00167092
8.21028 0 1.13646 0.00090494 -5.79224e-06 0.00178944
8.22802 0 1.16484 0.000896448 -5.12487e-06 0.00190748
8.24649 0 1.19439 0.000885856 -4.69051e-06 0.00201706
8.26572 0 1.22516 0.000873974 -3.9253e-06 0.0021192
8.28575 0 1.25721 0.000859047 -3.86079e-06 0.00221246
8.30661 0 1.29057 0.000841787 -3.32986e-06 0.00229803
8.32832 0 1.32531 0.000823062 -3.47121e-06 0.00236936
8.35093 0 1.3615 0.00080318 -3.0897e-06 0.002425
8.37448 0 1.39917 0.000780312 -3.35023e-06 0.00246068
8.399 0 1.4384 0.000754803 -1.24579e-06 0.00247342
8.42454 0 1.47926 0.000728499 -1.01903e-05 0.00246854
8.07738 0 0.855372 0.000819241 -7.93937e-06 -0.000208358
8.08869 0 0.872138 0.000828532 -1.11996e-05 -1.61877e-05
8.10048 0 0.889597 0.000844958 -1.04883e-05 0.000183021
8.11275 0 0.907777 0.000862709 -8.0109e-06 0.000381584
8.12553 0 0.926708 0.000879188 -8.57172e-06 0.000576442
8.13883 0 0.94642 0.000893785 -9.02243e-06 0.000763692
8.15269 0 0.966948 0.000905666 -8.47918e-06 0.000940812
8.16712 0 0.988324 0.000914067 -8.17218e-06 0.00110762
8.18214 0 1.01058 0.000916979 -7.11915e-06 0.0012567
8.19779 0 1.03376 0.000918197 -7.84181e-06 0.00139438
8.21408 0 1.0579 0.000918664 -4.58079e-06 0.00154109
8.23104 0 1.08303 0.000917021 -3.60029e-06 0.00168841
8.24871 0 1.1092 0.000908113 -3.65345e-06 0.00182285
8.26711 0 1.13646 0.000898304 -4.23929e-06 0.00194285
8.28626 0 1.16483 0.000887865 -3.76575e-06 0.00206398
8.30621 0 1.19439 0.000874551 -3.8235e-06 0.00217791
8.32698 0 1.22516 0.000859216 -3.53119e-06 0.00228514
8.34861 0 1.25721 0.000841971 -3.69808e-06 0.00238248
8.37113 0 1.29057 0.00082377 -3.59234e-06 0.00247455
8.39459 0 1.32531 0.000804415 -4.05213e-06 0.00255695
8.41901 0 1.3615 0.000783715 -3.63401e-06 0.00262585
8.44444 0 1.39917 0.000760069 -3.5224e-06 0.00267497
8.47093 0 1.4384 0.000732092 -2.5047e-06 0.00270611
8.4985 0 1.47926 0.000704281 -9.39827e-06 0.00272421
8.12014 0 0.855372 0.000788618 -1.41125e-05 -9.82004e-05
8.1323 0 0.872138 0.000809515 -1.60248e-05 9.17762e-05
8.14496 0 0.889596 0.000833471 -1.31857e-05 0.000281444
8.15814 0 0.907777 0.000857116 -1.12261e-05 0.000467487
8.17186 0 0.926708 0.000878894 -1.15419e-05 0.000649511
8.18616 0 0.94642 0.000898087 -1.12342e-05 0.000828927
8.20104 0 0.966948 0.00091272 -1.06142e-05 0.00100267